 Entering Link 1 = C:\G16W\l1.exe PID=     20664.
  
 Copyright (c) 1988-2017, Gaussian, Inc.  All Rights Reserved.
  
 This is part of the Gaussian(R) 16 program.  It is based on
 the Gaussian(R) 09 system (copyright 2009, Gaussian, Inc.),
 the Gaussian(R) 03 system (copyright 2003, Gaussian, Inc.),
 the Gaussian(R) 98 system (copyright 1998, Gaussian, Inc.),
 the Gaussian(R) 94 system (copyright 1995, Gaussian, Inc.),
 the Gaussian 92(TM) system (copyright 1992, Gaussian, Inc.),
 the Gaussian 90(TM) system (copyright 1990, Gaussian, Inc.),
 the Gaussian 88(TM) system (copyright 1988, Gaussian, Inc.),
 the Gaussian 86(TM) system (copyright 1986, Carnegie Mellon
 University), and the Gaussian 82(TM) system (copyright 1983,
 Carnegie Mellon University). Gaussian is a federally registered
 trademark of Gaussian, Inc.
  
 This software contains proprietary and confidential information,
 including trade secrets, belonging to Gaussian, Inc.
  
 This software is provided under written license and may be
 used, copied, transmitted, or stored only in accord with that
 written license.
  
 The following legend is applicable only to US Government
 contracts under FAR:
  
                    RESTRICTED RIGHTS LEGEND
  
 Use, reproduction and disclosure by the US Government is
 subject to restrictions as set forth in subparagraphs (a)
 and (c) of the Commercial Computer Software - Restricted
 Rights clause in FAR 52.227-19.
  
 Gaussian, Inc.
 340 Quinnipiac St., Bldg. 40, Wallingford CT 06492
  
  
 ---------------------------------------------------------------
 Warning -- This program may not be used in any manner that
 competes with the business of Gaussian, Inc. or will provide
 assistance to any competitor of Gaussian, Inc.  The licensee
 of this program is prohibited from giving any competitor of
 Gaussian, Inc. access to this program.  By using this program,
 the user acknowledges that Gaussian, Inc. is engaged in the
 business of creating and licensing software in the field of
 computational chemistry and represents and warrants to the
 licensee that it is not a competitor of Gaussian, Inc. and that
 it will not use this program in any manner prohibited above.
 ---------------------------------------------------------------
  

 Cite this work as:
 Gaussian 16, Revision B.01,
 M. J. Frisch, G. W. Trucks, H. B. Schlegel, G. E. Scuseria, 
 M. A. Robb, J. R. Cheeseman, G. Scalmani, V. Barone, 
 G. A. Petersson, H. Nakatsuji, X. Li, M. Caricato, A. V. Marenich, 
 J. Bloino, B. G. Janesko, R. Gomperts, B. Mennucci, H. P. Hratchian, 
 J. V. Ortiz, A. F. Izmaylov, J. L. Sonnenberg, D. Williams-Young, 
 F. Ding, F. Lipparini, F. Egidi, J. Goings, B. Peng, A. Petrone, 
 T. Henderson, D. Ranasinghe, V. G. Zakrzewski, J. Gao, N. Rega, 
 G. Zheng, W. Liang, M. Hada, M. Ehara, K. Toyota, R. Fukuda, 
 J. Hasegawa, M. Ishida, T. Nakajima, Y. Honda, O. Kitao, H. Nakai, 
 T. Vreven, K. Throssell, J. A. Montgomery, Jr., J. E. Peralta, 
 F. Ogliaro, M. J. Bearpark, J. J. Heyd, E. N. Brothers, K. N. Kudin, 
 V. N. Staroverov, T. A. Keith, R. Kobayashi, J. Normand, 
 K. Raghavachari, A. P. Rendell, J. C. Burant, S. S. Iyengar, 
 J. Tomasi, M. Cossi, J. M. Millam, M. Klene, C. Adamo, R. Cammi, 
 J. W. Ochterski, R. L. Martin, K. Morokuma, O. Farkas, 
 J. B. Foresman, and D. J. Fox, Gaussian, Inc., Wallingford CT, 2016.
 
 ******************************************
 Gaussian 16:  EM64W-G16RevB.01 16-Dec-2017
                07-Sep-2025 
 ******************************************
 %chk=HF_UCCSDT_pVTZ_smallscan.chk
 %mem=16GB
 %NProcShared=20
 Will use up to   20 processors via shared memory.
 --------------------------
 #p CCSD(T)/ cc-pVTZ nosymm
 --------------------------
 1/38=1,172=1/1;
 2/12=2,15=1,17=6,18=5,40=1/2;
 3/5=16,6=1,11=9,25=1,30=1/1,2,3;
 4//1;
 5/5=2,38=5/2;
 8/6=4,9=120000,10=1/1,4;
 9/5=7,14=2/13;
 6/7=2,8=2,9=2,10=2/1;
 99/5=1,9=1/99;
 Leave Link    1 at Sun Sep 07 23:28:30 2025, MaxMem=  2147483648 cpu:               0.0 elap:               0.3
 (Enter C:\G16W\l101.exe)
 -------------------------------------
 HF PES scan — UCCSDT/ cc-pVTZ R: 10
 -------------------------------------
 Symbolic Z-matrix:
 Charge =  0 Multiplicity = 1
 H
 F                    1    R
       Variables:
  R                    10.                       
 
 ITRead=  0  0
 MicOpt= -1 -1
 NAtoms=      2 NQM=        2 NQMF=       0 NMMI=      0 NMMIF=      0
                NMic=       0 NMicF=      0.
                    Isotopes and Nuclear Properties:
 (Nuclear quadrupole moments (NQMom) in fm**2, nuclear magnetic moments (NMagM)
  in nuclear magnetons)

  Atom         1           2
 IAtWgt=           1          19
 AtmWgt=   1.0078250  18.9984033
 NucSpn=           1           1
 AtZEff=   0.0000000   0.0000000
 NQMom=    0.0000000   0.0000000
 NMagM=    2.7928460   2.6288670
 AtZNuc=   1.0000000   9.0000000
 Leave Link  101 at Sun Sep 07 23:28:31 2025, MaxMem=  2147483648 cpu:               1.0 elap:               0.4
 (Enter C:\G16W\l202.exe)
                          Input orientation:                          
 ---------------------------------------------------------------------
 Center     Atomic      Atomic             Coordinates (Angstroms)
 Number     Number       Type             X           Y           Z
 ---------------------------------------------------------------------
      1          1           0        0.000000    0.000000    0.000000
      2          9           0        0.000000    0.000000   10.000000
 ---------------------------------------------------------------------
 Symmetry turned off by external request.
 Stoichiometry    FH
 Framework group  C*V[C*(HF)]
 Deg. of freedom     1
 Full point group                 C*V     NOp   4
 Rotational constants (GHZ):           0.0000000           5.2805624           5.2805624
 Leave Link  202 at Sun Sep 07 23:28:31 2025, MaxMem=  2147483648 cpu:               0.0 elap:               0.4
 (Enter C:\G16W\l301.exe)
 Standard basis: CC-pVTZ (5D, 7F)
 Ernie: Thresh=  0.10000D-02 Tol=  0.10000D-05 Strict=F.
 Ernie:  3 primitive shells out of 34 were deleted.
    44 basis functions,    69 primitive gaussians,    50 cartesian basis functions
     5 alpha electrons        5 beta electrons
       nuclear repulsion energy         0.4762594898 Hartrees.
 IExCor=    0 DFT=F Ex=HF Corr=None ExCW=0 ScaHFX=  1.000000
 ScaDFX=  1.000000  1.000000  1.000000  1.000000 ScalE2=  1.000000  1.000000
 IRadAn=      5 IRanWt=     -1 IRanGd=            0 ICorTp=0 IEmpDi=  4
 NAtoms=    2 NActive=    2 NUniq=    2 SFac= 1.00D+00 NAtFMM=   60 NAOKFM=F Big=F
 Integral buffers will be    131072 words long.
 Raffenetti 1 integral format.
 Two-electron integral symmetry is turned off.
 Leave Link  301 at Sun Sep 07 23:28:32 2025, MaxMem=  2147483648 cpu:               1.0 elap:               0.4
 (Enter C:\G16W\l302.exe)
 NPDir=0 NMtPBC=     1 NCelOv=     1 NCel=       1 NClECP=     1 NCelD=      1
         NCelK=      1 NCelE2=     1 NClLst=     1 CellRange=     0.0.
 One-electron integrals computed using PRISM.
 NBasis=    44 RedAO= T EigKep=  5.49D-02  NBF=    44
 NBsUse=    44 1.00D-06 EigRej= -1.00D+00 NBFU=    44
 Leave Link  302 at Sun Sep 07 23:28:32 2025, MaxMem=  2147483648 cpu:               0.0 elap:               0.5
 (Enter C:\G16W\l303.exe)
 DipDrv:  MaxL=1.
 Leave Link  303 at Sun Sep 07 23:28:32 2025, MaxMem=  2147483648 cpu:               0.0 elap:               0.4
 (Enter C:\G16W\l401.exe)
 ExpMin= 1.03D-01 ExpMax= 1.95D+04 ExpMxC= 6.65D+02 IAcc=3 IRadAn=         5 AccDes= 0.00D+00
 Harris functional with IExCor=  205 and IRadAn=       5 diagonalized for initial guess.
 HarFok:  IExCor=  205 AccDes= 0.00D+00 IRadAn=         5 IDoV= 1 UseB2=F ITyADJ=14
 ICtDFT=  3500011 ScaDFX=  1.000000  1.000000  1.000000  1.000000
 FoFCou: FMM=F IPFlag=           0 FMFlag=      100000 FMFlg1=           0
         NFxFlg=           0 DoJE=T BraDBF=F KetDBF=T FulRan=T
         wScrn=  0.000000 ICntrl=       500 IOpCl=  0 I1Cent=   200000004 NGrid=           0
         NMat0=    1 NMatS0=      1 NMatT0=    0 NMatD0=    1 NMtDS0=    0 NMtDT0=    0
 Symmetry not used in FoFCou.
 Harris En= -99.9057160731828    
 JPrj=0 DoOrth=F DoCkMO=F.
 Leave Link  401 at Sun Sep 07 23:28:33 2025, MaxMem=  2147483648 cpu:               1.0 elap:               0.7
 (Enter C:\G16W\l502.exe)
 Keep R1 ints in memory in canonical form, NReq=10210362.
 FoFCou: FMM=F IPFlag=           0 FMFlag=           0 FMFlg1=           0
         NFxFlg=           0 DoJE=F BraDBF=F KetDBF=F FulRan=T
         wScrn=  0.000000 ICntrl=       600 IOpCl=  0 I1Cent=           0 NGrid=           0
         NMat0=    1 NMatS0=    990 NMatT0=    0 NMatD0=    1 NMtDS0=    0 NMtDT0=    0
 Symmetry not used in FoFCou.
 Two-electron integral symmetry not used.
 Closed shell SCF:
 Using DIIS extrapolation, IDIIS=  1040.
 NGot=  2147483648 LenX=  2146986637 LenY=  2146983696
 Requested convergence on RMS density matrix=1.00D-08 within 128 cycles.
 Requested convergence on MAX density matrix=1.00D-06.
 Requested convergence on             energy=1.00D-06.
 No special actions if energy rises.

 Cycle   1  Pass 1  IDiag  1:
 E= -99.3739255998712    
 DIIS: error= 1.14D-01 at cycle   1 NSaved=   1.
 NSaved= 1 IEnMin= 1 EnMin= -99.3739255998712     IErMin= 1 ErrMin= 1.14D-01
 ErrMax= 1.14D-01  0.00D+00 EMaxC= 1.00D-01 BMatC= 2.39D-01 BMatP= 2.39D-01
 IDIUse=3 WtCom= 0.00D+00 WtEn= 1.00D+00
 Coeff-Com:  0.100D+01
 Coeff-En:   0.100D+01
 Coeff:      0.100D+01
 Gap=    -0.458 Goal=   None    Shift=    0.000
 GapD=   -0.458 DampG=0.250 DampE=0.250 DampFc=0.2500 IDamp=-1.
 Damping current iteration by 2.50D-01
 RMSDP=1.64D-02 MaxDP=2.54D-01              OVMax= 1.00D+00

 Cycle   2  Pass 1  IDiag  1:
 E= -99.5168193989726     Delta-E=       -0.142893799101 Rises=F Damp=T
 DIIS: error= 5.96D-02 at cycle   2 NSaved=   2.
 NSaved= 2 IEnMin= 2 EnMin= -99.5168193989726     IErMin= 2 ErrMin= 5.96D-02
 ErrMax= 5.96D-02  0.00D+00 EMaxC= 1.00D-01 BMatC= 5.50D-02 BMatP= 2.39D-01
 IDIUse=3 WtCom= 4.04D-01 WtEn= 5.96D-01
 Coeff-Com: -0.293D+00 0.129D+01
 Coeff-En:   0.000D+00 0.100D+01
 Coeff:     -0.119D+00 0.112D+01
 Gap=     0.168 Goal=   None    Shift=    0.000
 RMSDP=1.19D-02 MaxDP=2.10D-01 DE=-1.43D-01 OVMax= 8.88D-02

 Cycle   3  Pass 1  IDiag  1:
 E= -98.9441185817198     Delta-E=        0.572700817253 Rises=F Damp=F
 DIIS: error= 1.63D-01 at cycle   3 NSaved=   3.
 NSaved= 3 IEnMin= 2 EnMin= -99.5168193989726     IErMin= 2 ErrMin= 5.96D-02
 ErrMax= 1.63D-01  0.00D+00 EMaxC= 1.00D-01 BMatC= 3.10D-01 BMatP= 5.50D-02
 IDIUse=2 WtCom= 0.00D+00 WtEn= 1.00D+00
 EnCoef did   100 forward-backward iterations
 Coeff-En:   0.614D+00 0.570D-01 0.329D+00
 Coeff:      0.614D+00 0.570D-01 0.329D+00
 Gap=    -0.010 Goal=   None    Shift=    0.000
 RMSDP=1.57D-02 MaxDP=2.46D-01 DE= 5.73D-01 OVMax= 1.00D+00

 Cycle   4  Pass 1  IDiag  1:
 E= -99.4474812631522     Delta-E=       -0.503362681432 Rises=F Damp=F
 DIIS: error= 5.81D-02 at cycle   4 NSaved=   4.
 NSaved= 4 IEnMin= 2 EnMin= -99.5168193989726     IErMin= 4 ErrMin= 5.81D-02
 ErrMax= 5.81D-02  0.00D+00 EMaxC= 1.00D-01 BMatC= 4.17D-02 BMatP= 5.50D-02
 IDIUse=3 WtCom= 4.19D-01 WtEn= 5.81D-01
 Coeff-Com: -0.544D+00 0.682D+00-0.771D-03 0.863D+00
 Coeff-En:   0.000D+00 0.000D+00 0.298D+00 0.702D+00
 Coeff:     -0.228D+00 0.286D+00 0.173D+00 0.769D+00
 Gap=    -0.051 Goal=   None    Shift=    0.000
 RMSDP=1.56D-02 MaxDP=2.38D-01 DE=-5.03D-01 OVMax= 1.00D+00

 Cycle   5  Pass 1  IDiag  1:
 E= -98.9547771919818     Delta-E=        0.492704071170 Rises=F Damp=F
 DIIS: error= 1.58D-01 at cycle   5 NSaved=   5.
 NSaved= 5 IEnMin= 2 EnMin= -99.5168193989726     IErMin= 4 ErrMin= 5.81D-02
 ErrMax= 1.58D-01  0.00D+00 EMaxC= 1.00D-01 BMatC= 2.87D-01 BMatP= 4.17D-02
 IDIUse=2 WtCom= 0.00D+00 WtEn= 1.00D+00
 Coeff-En:   0.000D+00 0.000D+00 0.000D+00 0.700D+00 0.300D+00
 Coeff:      0.000D+00 0.000D+00 0.000D+00 0.700D+00 0.300D+00
 Gap=     0.000 Goal=   None    Shift=    0.000
 RMSDP=8.60D-04 MaxDP=2.35D-02 DE= 4.93D-01 OVMax= 1.64D-02

 Cycle   6  Pass 1  IDiag  1:
 E= -98.9921873780865     Delta-E=       -0.037410186105 Rises=F Damp=F
 DIIS: error= 1.45D-01 at cycle   6 NSaved=   6.
 NSaved= 6 IEnMin= 2 EnMin= -99.5168193989726     IErMin= 4 ErrMin= 5.81D-02
 ErrMax= 1.45D-01  0.00D+00 EMaxC= 1.00D-01 BMatC= 2.42D-01 BMatP= 4.17D-02
 IDIUse=2 WtCom= 0.00D+00 WtEn= 1.00D+00
 Coeff-En:   0.000D+00 0.000D+00 0.000D+00 0.693D+00 0.000D+00 0.307D+00
 Coeff:      0.000D+00 0.000D+00 0.000D+00 0.693D+00 0.000D+00 0.307D+00
 Gap=     0.000 Goal=   None    Shift=    0.000
 RMSDP=1.57D-02 MaxDP=2.62D-01 DE=-3.74D-02 OVMax= 1.00D+00

 Cycle   7  Pass 1  IDiag  1:
 E= -99.4414534614537     Delta-E=       -0.449266083367 Rises=F Damp=F
 DIIS: error= 6.52D-02 at cycle   7 NSaved=   7.
 NSaved= 7 IEnMin= 2 EnMin= -99.5168193989726     IErMin= 4 ErrMin= 5.81D-02
 ErrMax= 6.52D-02  0.00D+00 EMaxC= 1.00D-01 BMatC= 5.31D-02 BMatP= 4.17D-02
 IDIUse=2 WtCom= 0.00D+00 WtEn= 1.00D+00
 Coeff-En:   0.000D+00 0.000D+00 0.000D+00 0.000D+00 0.000D+00 0.313D+00
 Coeff-En:   0.687D+00
 Coeff:      0.000D+00 0.000D+00 0.000D+00 0.000D+00 0.000D+00 0.313D+00
 Coeff:      0.687D+00
 Gap=     0.000 Goal=   None    Shift=    0.000
 RMSDP=1.58D-02 MaxDP=2.69D-01 DE=-4.49D-01 OVMax= 1.00D+00

 Cycle   8  Pass 1  IDiag  1:
 E= -98.9976801367527     Delta-E=        0.443773324701 Rises=F Damp=F
 DIIS: error= 1.43D-01 at cycle   8 NSaved=   8.
 NSaved= 8 IEnMin= 2 EnMin= -99.5168193989726     IErMin= 4 ErrMin= 5.81D-02
 ErrMax= 1.43D-01  0.00D+00 EMaxC= 1.00D-01 BMatC= 2.37D-01 BMatP= 4.17D-02
 IDIUse=2 WtCom= 0.00D+00 WtEn= 1.00D+00
 Coeff-En:   0.000D+00 0.000D+00 0.000D+00 0.000D+00 0.000D+00 0.000D+00
 Coeff-En:   0.686D+00 0.314D+00
 Coeff:      0.000D+00 0.000D+00 0.000D+00 0.000D+00 0.000D+00 0.000D+00
 Coeff:      0.686D+00 0.314D+00
 Gap=     0.000 Goal=   None    Shift=    0.000
 RMSDP=1.58D-02 MaxDP=2.69D-01 DE= 4.44D-01 OVMax= 1.00D+00

 Cycle   9  Pass 1  IDiag  1:
 E= -99.4415142732758     Delta-E=       -0.443834136523 Rises=F Damp=F
 DIIS: error= 6.50D-02 at cycle   9 NSaved=   9.
 NSaved= 9 IEnMin= 2 EnMin= -99.5168193989726     IErMin= 4 ErrMin= 5.81D-02
 ErrMax= 6.50D-02  0.00D+00 EMaxC= 1.00D-01 BMatC= 5.22D-02 BMatP= 4.17D-02
 IDIUse=2 WtCom= 0.00D+00 WtEn= 1.00D+00
 Coeff-En:   0.000D+00 0.000D+00 0.000D+00 0.000D+00 0.000D+00 0.000D+00
 Coeff-En:   0.000D+00 0.314D+00 0.686D+00
 Coeff:      0.000D+00 0.000D+00 0.000D+00 0.000D+00 0.000D+00 0.000D+00
 Coeff:      0.000D+00 0.314D+00 0.686D+00
 Gap=     0.000 Goal=   None    Shift=    0.000
 RMSDP=1.15D-02 MaxDP=1.44D-01 DE=-4.44D-01 OVMax= 7.31D-01

 Cycle  10  Pass 1  IDiag  1:
 E= -99.5285443585778     Delta-E=       -0.087030085302 Rises=F Damp=F
 DIIS: error= 5.57D-02 at cycle  10 NSaved=  10.
 NSaved=10 IEnMin=10 EnMin= -99.5285443585778     IErMin=10 ErrMin= 5.57D-02
 ErrMax= 5.57D-02  0.00D+00 EMaxC= 1.00D-01 BMatC= 4.23D-02 BMatP= 4.17D-02
 IDIUse=3 WtCom= 4.43D-01 WtEn= 5.57D-01
 Coeff-Com: -0.732D+00 0.101D+01 0.150D+00-0.126D+01-0.554D+00-0.153D+01
 Coeff-Com:  0.402D+01 0.193D+01-0.204D+01 0.429D-03
 Coeff-En:   0.000D+00 0.000D+00 0.000D+00 0.000D+00 0.000D+00 0.000D+00
 Coeff-En:   0.000D+00 0.000D+00 0.361D+00 0.639D+00
 Coeff:     -0.324D+00 0.446D+00 0.666D-01-0.556D+00-0.245D+00-0.676D+00
 Coeff:      0.178D+01 0.854D+00-0.703D+00 0.356D+00
 Gap=     0.019 Goal=   None    Shift=    0.000
 RMSDP=1.24D-03 MaxDP=1.70D-02 DE=-8.70D-02 OVMax= 7.88D-02

 Cycle  11  Pass 1  IDiag  1:
 E= -99.4765317624005     Delta-E=        0.052012596177 Rises=F Damp=F
 DIIS: error= 7.62D-02 at cycle  11 NSaved=  11.
 NSaved=11 IEnMin=10 EnMin= -99.5285443585778     IErMin=10 ErrMin= 5.57D-02
 ErrMax= 7.62D-02  0.00D+00 EMaxC= 1.00D-01 BMatC= 8.11D-02 BMatP= 4.17D-02
 IDIUse=2 WtCom= 0.00D+00 WtEn= 1.00D+00
 Rare condition: small coef for last iteration:  0.000D+00
 Coeff-En:   0.000D+00 0.000D+00 0.000D+00 0.000D+00 0.000D+00 0.000D+00
 Coeff-En:   0.000D+00 0.000D+00 0.459D+00 0.000D+00 0.541D+00
 Coeff:      0.000D+00 0.000D+00 0.000D+00 0.000D+00 0.000D+00 0.000D+00
 Coeff:      0.000D+00 0.000D+00 0.459D+00 0.000D+00 0.541D+00
 Gap=     0.022 Goal=   None    Shift=    0.000
 RMSDP=6.80D-03 MaxDP=1.09D-01 DE= 5.20D-02 OVMax= 4.33D-01

 Cycle  12  Pass 1  IDiag  1:
 E= -99.5547239301514     Delta-E=       -0.078192167751 Rises=F Damp=F
 DIIS: error= 3.15D-02 at cycle  12 NSaved=  12.
 NSaved=12 IEnMin=12 EnMin= -99.5547239301514     IErMin=12 ErrMin= 3.15D-02
 ErrMax= 3.15D-02  0.00D+00 EMaxC= 1.00D-01 BMatC= 1.79D-02 BMatP= 4.17D-02
 IDIUse=3 WtCom= 6.85D-01 WtEn= 3.15D-01
 EnCoef did   100 forward-backward iterations
 Coeff-Com: -0.513D-01 0.696D-01-0.121D-01-0.322D-01 0.381D-03-0.519D-01
 Coeff-Com:  0.160D-01 0.535D-01-0.125D-02 0.103D+01-0.542D+00 0.517D+00
 Coeff-En:   0.000D+00 0.000D+00 0.000D+00 0.000D+00 0.000D+00 0.000D+00
 Coeff-En:   0.000D+00 0.000D+00 0.000D+00 0.397D+00 0.110D-01 0.592D+00
 Coeff:     -0.351D-01 0.477D-01-0.826D-02-0.221D-01 0.261D-03-0.356D-01
 Coeff:      0.110D-01 0.367D-01-0.857D-03 0.833D+00-0.368D+00 0.541D+00
 Gap=     0.044 Goal=   None    Shift=    0.000
 RMSDP=3.47D-03 MaxDP=5.46D-02 DE=-7.82D-02 OVMax= 2.20D-01

 Cycle  13  Pass 1  IDiag  1:
 E= -99.5790013127317     Delta-E=       -0.024277382580 Rises=F Damp=F
 DIIS: error= 1.45D-02 at cycle  13 NSaved=  13.
 NSaved=13 IEnMin=13 EnMin= -99.5790013127317     IErMin=13 ErrMin= 1.45D-02
 ErrMax= 1.45D-02  0.00D+00 EMaxC= 1.00D-01 BMatC= 3.12D-03 BMatP= 1.79D-02
 IDIUse=3 WtCom= 8.55D-01 WtEn= 1.45D-01
 Coeff-Com: -0.110D-01 0.153D-01-0.921D-02-0.109D-01 0.156D-01 0.158D-01
 Coeff-Com: -0.962D-02-0.150D-01 0.551D-01-0.116D+00-0.882D-01 0.794D-01
 Coeff-Com:  0.108D+01
 Coeff-En:   0.000D+00 0.000D+00 0.000D+00 0.000D+00 0.000D+00 0.000D+00
 Coeff-En:   0.000D+00 0.000D+00 0.000D+00 0.000D+00 0.000D+00 0.246D+00
 Coeff-En:   0.754D+00
 Coeff:     -0.940D-02 0.131D-01-0.787D-02-0.930D-02 0.133D-01 0.135D-01
 Coeff:     -0.822D-02-0.128D-01 0.471D-01-0.988D-01-0.754D-01 0.104D+00
 Coeff:      0.103D+01
 Gap=     0.050 Goal=   None    Shift=    0.000
 RMSDP=3.10D-04 MaxDP=4.73D-03 DE=-2.43D-02 OVMax= 1.96D-02

 Cycle  14  Pass 1  IDiag  1:
 E= -99.5813365237154     Delta-E=       -0.002335210984 Rises=F Damp=F
 DIIS: error= 9.07D-03 at cycle  14 NSaved=  14.
 NSaved=14 IEnMin=14 EnMin= -99.5813365237154     IErMin=14 ErrMin= 9.07D-03
 ErrMax= 9.07D-03  0.00D+00 EMaxC= 1.00D-01 BMatC= 1.22D-03 BMatP= 3.12D-03
 IDIUse=3 WtCom= 9.09D-01 WtEn= 9.07D-02
 Coeff-Com: -0.215D-02 0.268D-02 0.172D-02 0.477D-02 0.984D-02-0.704D-02
 Coeff-Com: -0.516D-01 0.118D-03 0.618D-01 0.722D-01-0.979D-01 0.525D-01
 Coeff-Com: -0.654D+00 0.161D+01
 Coeff-En:   0.000D+00 0.000D+00 0.000D+00 0.000D+00 0.000D+00 0.000D+00
 Coeff-En:   0.000D+00 0.000D+00 0.000D+00 0.000D+00 0.000D+00 0.155D+00
 Coeff-En:   0.000D+00 0.845D+00
 Coeff:     -0.195D-02 0.244D-02 0.157D-02 0.434D-02 0.895D-02-0.640D-02
 Coeff:     -0.469D-01 0.107D-03 0.562D-01 0.657D-01-0.890D-01 0.618D-01
 Coeff:     -0.594D+00 0.154D+01
 Gap=     0.052 Goal=   None    Shift=    0.000
 RMSDP=3.45D-04 MaxDP=5.24D-03 DE=-2.34D-03 OVMax= 2.19D-02

 Cycle  15  Pass 1  IDiag  1:
 E= -99.5826829083690     Delta-E=       -0.001346384654 Rises=F Damp=F
 DIIS: error= 3.22D-03 at cycle  15 NSaved=  15.
 NSaved=15 IEnMin=15 EnMin= -99.5826829083690     IErMin=15 ErrMin= 3.22D-03
 ErrMax= 3.22D-03  0.00D+00 EMaxC= 1.00D-01 BMatC= 1.57D-04 BMatP= 1.22D-03
 IDIUse=3 WtCom= 9.68D-01 WtEn= 3.22D-02
 Coeff-Com:  0.490D-03-0.763D-03 0.154D-02-0.952D-04 0.690D-03-0.509D-02
 Coeff-Com: -0.566D-02 0.370D-02 0.949D-02-0.985D-02 0.191D-02-0.119D-01
 Coeff-Com:  0.154D+00-0.851D+00 0.171D+01
 Coeff-En:   0.000D+00 0.000D+00 0.000D+00 0.000D+00 0.000D+00 0.000D+00
 Coeff-En:   0.000D+00 0.000D+00 0.000D+00 0.000D+00 0.000D+00 0.287D-01
 Coeff-En:   0.000D+00 0.000D+00 0.971D+00
 Coeff:      0.475D-03-0.738D-03 0.149D-02-0.921D-04 0.668D-03-0.492D-02
 Coeff:     -0.547D-02 0.358D-02 0.919D-02-0.953D-02 0.185D-02-0.106D-01
 Coeff:      0.149D+00-0.823D+00 0.169D+01
 Gap=     0.053 Goal=   None    Shift=    0.000
 RMSDP=2.15D-04 MaxDP=3.23D-03 DE=-1.35D-03 OVMax= 1.36D-02

 Cycle  16  Pass 1  IDiag  1:
 E= -99.5828810989299     Delta-E=       -0.000198190561 Rises=F Damp=F
 DIIS: error= 3.10D-04 at cycle  16 NSaved=  16.
 NSaved=16 IEnMin=16 EnMin= -99.5828810989299     IErMin=16 ErrMin= 3.10D-04
 ErrMax= 3.10D-04  0.00D+00 EMaxC= 1.00D-01 BMatC= 1.48D-06 BMatP= 1.57D-04
 IDIUse=3 WtCom= 9.97D-01 WtEn= 3.10D-03
 Coeff-Com: -0.240D-04 0.428D-04-0.354D-04-0.422D-03 0.473D-03-0.684D-03
 Coeff-Com:  0.128D-02 0.746D-03 0.105D-02-0.551D-02-0.234D-02-0.960D-02
 Coeff-Com:  0.724D-01-0.111D-01-0.133D+00 0.109D+01
 Coeff-En:   0.000D+00 0.000D+00 0.000D+00 0.000D+00 0.000D+00 0.000D+00
 Coeff-En:   0.000D+00 0.000D+00 0.000D+00 0.000D+00 0.000D+00 0.000D+00
 Coeff-En:   0.000D+00 0.000D+00 0.484D-01 0.952D+00
 Coeff:     -0.239D-04 0.427D-04-0.353D-04-0.420D-03 0.472D-03-0.681D-03
 Coeff:      0.128D-02 0.744D-03 0.104D-02-0.550D-02-0.234D-02-0.957D-02
 Coeff:      0.722D-01-0.110D-01-0.133D+00 0.109D+01
 Gap=     0.053 Goal=   None    Shift=    0.000
 RMSDP=2.70D-05 MaxDP=4.41D-04 DE=-1.98D-04 OVMax= 1.71D-03

 Cycle  17  Pass 1  IDiag  1:
 E= -99.5828827015153     Delta-E=       -0.000001602585 Rises=F Damp=F
 DIIS: error= 1.21D-04 at cycle  17 NSaved=  17.
 NSaved=17 IEnMin=17 EnMin= -99.5828827015153     IErMin=17 ErrMin= 1.21D-04
 ErrMax= 1.21D-04  0.00D+00 EMaxC= 1.00D-01 BMatC= 2.30D-07 BMatP= 1.48D-06
 IDIUse=3 WtCom= 9.99D-01 WtEn= 1.21D-03
 Coeff-Com:  0.290D-04-0.381D-04 0.383D-04-0.120D-03 0.467D-04-0.343D-03
 Coeff-Com:  0.554D-03 0.378D-03 0.703D-04-0.236D-02 0.246D-03-0.346D-02
 Coeff-Com:  0.198D-01-0.610D-02-0.588D-01 0.386D+00 0.664D+00
 Coeff-En:   0.000D+00 0.000D+00 0.000D+00 0.000D+00 0.000D+00 0.000D+00
 Coeff-En:   0.000D+00 0.000D+00 0.000D+00 0.000D+00 0.000D+00 0.000D+00
 Coeff-En:   0.000D+00 0.000D+00 0.000D+00 0.259D+00 0.741D+00
 Coeff:      0.289D-04-0.380D-04 0.382D-04-0.119D-03 0.467D-04-0.343D-03
 Coeff:      0.554D-03 0.378D-03 0.702D-04-0.236D-02 0.245D-03-0.345D-02
 Coeff:      0.198D-01-0.609D-02-0.587D-01 0.386D+00 0.664D+00
 Gap=     0.053 Goal=   None    Shift=    0.000
 RMSDP=6.80D-06 MaxDP=1.03D-04 DE=-1.60D-06 OVMax= 4.32D-04

 Cycle  18  Pass 1  IDiag  1:
 E= -99.5828829868594     Delta-E=       -0.000000285344 Rises=F Damp=F
 DIIS: error= 9.64D-06 at cycle  18 NSaved=  18.
 NSaved=18 IEnMin=18 EnMin= -99.5828829868594     IErMin=18 ErrMin= 9.64D-06
 ErrMax= 9.64D-06  0.00D+00 EMaxC= 1.00D-01 BMatC= 1.52D-09 BMatP= 2.30D-07
 IDIUse=1 WtCom= 1.00D+00 WtEn= 0.00D+00
 Coeff-Com:  0.364D-06-0.659D-06-0.570D-05 0.155D-04 0.113D-05 0.228D-04
 Coeff-Com: -0.414D-04-0.198D-04-0.419D-05 0.153D-03-0.133D-03 0.176D-03
 Coeff-Com: -0.116D-02 0.744D-02-0.428D-02-0.273D-01-0.431D+00 0.146D+01
 Coeff:      0.364D-06-0.659D-06-0.570D-05 0.155D-04 0.113D-05 0.228D-04
 Coeff:     -0.414D-04-0.198D-04-0.419D-05 0.153D-03-0.133D-03 0.176D-03
 Coeff:     -0.116D-02 0.744D-02-0.428D-02-0.273D-01-0.431D+00 0.146D+01
 Gap=     0.053 Goal=   None    Shift=    0.000
 RMSDP=7.06D-07 MaxDP=1.04D-05 DE=-2.85D-07 OVMax= 4.47D-05

 Cycle  19  Pass 1  IDiag  1:
 E= -99.5828829886044     Delta-E=       -0.000000001745 Rises=F Damp=F
 DIIS: error= 2.06D-06 at cycle  19 NSaved=  19.
 NSaved=19 IEnMin=19 EnMin= -99.5828829886044     IErMin=19 ErrMin= 2.06D-06
 ErrMax= 2.06D-06  0.00D+00 EMaxC= 1.00D-01 BMatC= 6.53D-11 BMatP= 1.52D-09
 IDIUse=1 WtCom= 1.00D+00 WtEn= 0.00D+00
 Large coefficients: NSaved= 19 BigCof=    0.00 CofMax=   10.00 Det=-7.13D-16
 Inversion failed.  Reducing to 18 matrices.
 Large coefficients: NSaved= 18 BigCof=    0.00 CofMax=   10.00 Det=-9.83D-16
 Inversion failed.  Reducing to 17 matrices.
 Large coefficients: NSaved= 17 BigCof=    0.00 CofMax=   10.00 Det=-1.05D-15
 Inversion failed.  Reducing to 16 matrices.
 Large coefficients: NSaved= 16 BigCof=    0.00 CofMax=   10.00 Det=-1.13D-15
 Inversion failed.  Reducing to 15 matrices.
 Coeff-Com: -0.153D-06 0.265D-06-0.934D-06 0.460D-05-0.104D-05-0.171D-05
 Coeff-Com:  0.100D-04-0.141D-04-0.138D-04-0.719D-03 0.937D-03 0.149D-02
 Coeff-Com:  0.549D-01-0.141D+00 0.108D+01
 Coeff:     -0.153D-06 0.265D-06-0.934D-06 0.460D-05-0.104D-05-0.171D-05
 Coeff:      0.100D-04-0.141D-04-0.138D-04-0.719D-03 0.937D-03 0.149D-02
 Coeff:      0.549D-01-0.141D+00 0.108D+01
 Gap=     0.053 Goal=   None    Shift=    0.000
 RMSDP=1.41D-07 MaxDP=2.16D-06 DE=-1.74D-09 OVMax= 8.95D-06

 Cycle  20  Pass 1  IDiag  1:
 E= -99.5828829886865     Delta-E=       -0.000000000082 Rises=F Damp=F
 DIIS: error= 2.33D-07 at cycle  20 NSaved=  16.
 NSaved=16 IEnMin=16 EnMin= -99.5828829886865     IErMin=16 ErrMin= 2.33D-07
 ErrMax= 2.33D-07  0.00D+00 EMaxC= 1.00D-01 BMatC= 8.41D-13 BMatP= 6.53D-11
 IDIUse=1 WtCom= 1.00D+00 WtEn= 0.00D+00
 Large coefficients: NSaved= 16 BigCof=    0.00 CofMax=   10.00 Det=-6.59D-17
 Inversion failed.  Reducing to 15 matrices.
 Coeff-Com: -0.109D-08-0.106D-06-0.649D-07 0.305D-06-0.229D-05 0.121D-05
 Coeff-Com: -0.655D-06 0.168D-04-0.277D-04-0.127D-03 0.423D-03 0.789D-03
 Coeff-Com: -0.118D-01-0.151D+00 0.116D+01
 Coeff:     -0.109D-08-0.106D-06-0.649D-07 0.305D-06-0.229D-05 0.121D-05
 Coeff:     -0.655D-06 0.168D-04-0.277D-04-0.127D-03 0.423D-03 0.789D-03
 Coeff:     -0.118D-01-0.151D+00 0.116D+01
 Gap=     0.053 Goal=   None    Shift=    0.000
 RMSDP=1.29D-08 MaxDP=1.95D-07 DE=-8.21D-11 OVMax= 8.16D-07

 Cycle  21  Pass 1  IDiag  1:
 E= -99.5828829886876     Delta-E=       -0.000000000001 Rises=F Damp=F
 DIIS: error= 2.29D-08 at cycle  21 NSaved=  16.
 NSaved=16 IEnMin=16 EnMin= -99.5828829886876     IErMin=16 ErrMin= 2.29D-08
 ErrMax= 2.29D-08  0.00D+00 EMaxC= 1.00D-01 BMatC= 7.97D-15 BMatP= 8.41D-13
 IDIUse=1 WtCom= 1.00D+00 WtEn= 0.00D+00
 Large coefficients: NSaved= 16 BigCof=    0.00 CofMax=   10.00 Det=-7.25D-19
 Inversion failed.  Reducing to 15 matrices.
 Coeff-Com: -0.142D-09 0.290D-07-0.623D-07 0.361D-06-0.234D-06 0.191D-06
 Coeff-Com: -0.262D-05 0.717D-05 0.168D-04-0.698D-04-0.626D-04 0.207D-02
 Coeff-Com:  0.329D-01-0.313D+00 0.128D+01
 Coeff:     -0.142D-09 0.290D-07-0.623D-07 0.361D-06-0.234D-06 0.191D-06
 Coeff:     -0.262D-05 0.717D-05 0.168D-04-0.698D-04-0.626D-04 0.207D-02
 Coeff:      0.329D-01-0.313D+00 0.128D+01
 Gap=     0.053 Goal=   None    Shift=    0.000
 RMSDP=1.72D-09 MaxDP=2.67D-08 DE=-1.02D-12 OVMax= 1.09D-07

 SCF Done:  E(RHF) =  -99.5828829887     A.U. after   21 cycles
            NFock= 21  Conv=0.17D-08     -V/T= 1.9996
 KE= 9.962198452924D+01 PE=-2.416356974097D+02 EE= 4.195457040193D+01
 Leave Link  502 at Sun Sep 07 23:28:35 2025, MaxMem=  2147483648 cpu:               2.0 elap:               2.1
 (Enter C:\G16W\l801.exe)
 Windowed orbitals will be sorted by symmetry type.
 ExpMin= 1.03D-01 ExpMax= 1.95D+04 ExpMxC= 6.65D+02 IAcc=3 IRadAn=         5 AccDes= 0.00D+00
 HarFok:  IExCor=  205 AccDes= 0.00D+00 IRadAn=         5 IDoV=-2 UseB2=F ITyADJ=14
 ICtDFT= 12500011 ScaDFX=  1.000000  1.000000  1.000000  1.000000
 Largest valence mixing into a core orbital is  9.98D-05
 Largest core mixing into a valence orbital is  2.13D-05
 Range of M.O.s used for correlation:     2    44
 NBasis=    44 NAE=     5 NBE=     5 NFC=     1 NFV=     0
 NROrb=     43 NOA=     4 NOB=     4 NVA=    39 NVB=    39

 **** Warning!!: The smallest alpha delta epsilon is  0.52864608D-01

 Leave Link  801 at Sun Sep 07 23:28:36 2025, MaxMem=  2147483648 cpu:               1.0 elap:               0.4
 (Enter C:\G16W\l804.exe)
 Closed-shell transformation, MDV=  2147483648 ITran=4 ISComp=1.
 Unit  1 TFree=         63428 TCopy=        143576.
 Semi-Direct transformation.
 ModeAB=           4 MOrb=             4 LenV=    2147229659
 LASXX=       145335 LTotXX=      145335 LenRXX=      300811
 LTotAB=      155476 MaxLAS=      149468 LenRXY=           0
 NonZer=      446146 LenScr=     1338368 LnRSAI=      149468
 LnScr1=      785920 LExtra=           0 Total=      2574567
 MaxDsk=          -1 SrtSym=           T ITran=            4
 DoSDTr:  NPSUse= 20
 JobTyp=0 Pass  1:  I=   1 to   4.
 (rs|ai) integrals will be sorted in core.
 Complete sort for first half transformation.
 First half transformation complete.
 Complete sort for second half transformation.
 Second half transformation complete.
 Spin components of T(2) and E(2):
     alpha-alpha T2 =       0.1102595585D-01 E2=     -0.3986272682D-01
     alpha-beta  T2 =       0.7549510714D+01 E2=     -0.1012020097D+01
     beta-beta   T2 =       0.1102595585D-01 E2=     -0.3986272682D-01
 ANorm=    0.2927723113D+01
 E2 =    -0.1091745551D+01 EUMP2 =    -0.10067462853977D+03
 Leave Link  804 at Sun Sep 07 23:28:36 2025, MaxMem=  2147483648 cpu:               0.0 elap:               0.5
 (Enter C:\G16W\l913.exe)
 CIDS:  MDV=  2147483648.
 Frozen-core window:  NFC=   1 NFV=   0.
 IFCWin=0 IBDFC=1 NFBD=     0     0 NFCmp=     0     0 NFFFC=     0     0
 Using DD3R+UMP44R for 1st iteration.
 Using DD4RQ for 2nd and later iterations.
 Keep R2 and R3 ints in memory in canonical form, NReq=10703653.
 FoFCou: FMM=F IPFlag=           0 FMFlag=           0 FMFlg1=           0
         NFxFlg=           0 DoJE=F BraDBF=F KetDBF=F FulRan=T
         wScrn=  0.000000 ICntrl=       600 IOpCl=  0 I1Cent=           0 NGrid=           0
         NMat0=    1 NMatS0=    990 NMatT0=    0 NMatD0=    1 NMtDS0=    0 NMtDT0=    0
 Symmetry not used in FoFCou.
 Two-electron integral symmetry not used.
 CIDS: In Core Option IDoMem=           1.
 CCSD(T)
 =======
 Iterations=  50 Convergence= 0.100D-06
 Produce multiple copies of IABC intergrals
 Iteration Nr.   1
 **********************
 DD1Dir will call FoFMem   1 times, MxPair=        20
 NAB=    10 NAA=     0 NBB=     0.
 MP4(R+Q)=  0.71602832D+01
 Maximum subspace dimension=  5
 A-vector RMS=  1.8505248D+00 Max=  2.6044789D+01 conv= 1.00D-05.
 RLE energy=        0.3477014770
 E3=        0.60338353D+00        EUMP3=      -0.10007124501D+03
 E4(DQ)=    0.61822224D+01        UMP4(DQ)=   -0.93889022620D+02
 E4(SDQ)=  -0.55731036D+01        UMP4(SDQ)=  -0.10564434858D+03
 VARIATIONAL ENERGIES WITH THE FIRST-ORDER WAVEFUNCTION:
 DE(Corr)=   38.403394     E(Corr)=     -61.179488653    
 NORM(A)=   0.21475280D+01
 Iteration Nr.   2
 **********************
 DD1Dir will call FoFMem   1 times, MxPair=        20
 NAB=    10 NAA=     0 NBB=     0.
 A-vector RMS=  3.3206491D-01 Max=  2.0347572D+00 conv= 1.00D-05.
 RLE energy=       -0.0769140068
 DE(Corr)=  0.65495891     E(CORR)=     -98.927924083     Delta=-3.77D+01
 NORM(A)=   0.13017069D+01
 Iteration Nr.   3
 **********************
 DD1Dir will call FoFMem   1 times, MxPair=        20
 NAB=    10 NAA=     0 NBB=     0.
 A-vector RMS=  9.1167115D-02 Max=  1.6651950D+00 conv= 1.00D-05.
 RLE energy=       -0.1295248399
 DE(Corr)= -0.49492807     E(CORR)=     -100.07781106     Delta=-1.15D+00
 NORM(A)=   0.12004527D+01
 Iteration Nr.   4
 **********************
 DD1Dir will call FoFMem   1 times, MxPair=        20
 NAB=    10 NAA=     0 NBB=     0.
 A-vector RMS=  2.1246252D-01 Max=  2.3989372D+00 conv= 1.00D-05.
 RLE energy=       -0.2101559804
 DE(Corr)= -0.32438849     E(CORR)=     -99.907271475     Delta= 1.71D-01
 NORM(A)=   0.11315616D+01
 Iteration Nr.   5
 **********************
 DD1Dir will call FoFMem   1 times, MxPair=        20
 NAB=    10 NAA=     0 NBB=     0.
 A-vector RMS=  9.0463405D-02 Max=  1.5546764D+00 conv= 1.00D-05.
 RLE energy=       -0.2249005493
 DE(Corr)= -0.67080660     E(CORR)=     -100.25368959     Delta=-3.46D-01
 NORM(A)=   0.10546481D+01
 Iteration Nr.   6
 **********************
 DD1Dir will call FoFMem   1 times, MxPair=        20
 NAB=    10 NAA=     0 NBB=     0.
 A-vector RMS=  1.4171981D-01 Max=  2.6495917D+00 conv= 1.00D-05.
 RLE energy=        5.4979193795
 DE(Corr)= -0.82678880     E(CORR)=     -100.40967179     Delta=-1.56D-01
 NORM(A)=   0.93979505D+01
 Iteration Nr.   7
 **********************
 DD1Dir will call FoFMem   1 times, MxPair=        20
 NAB=    10 NAA=     0 NBB=     0.
 A-vector RMS=  9.9155484D+01 Max=  1.1601000D+03 conv= 1.00D-05.
 RLE energy=       -0.1389016512
 DE(Corr)=   95864.859     E(CORR)=      95765.276268     Delta= 9.59D+04
 NORM(A)=   0.11801420D+01
 Iteration Nr.   8
 **********************
 DD1Dir will call FoFMem   1 times, MxPair=        20
 NAB=    10 NAA=     0 NBB=     0.
 A-vector RMS=  4.3583997D-01 Max=  3.1231714D+00 conv= 1.00D-05.
 RLE energy=       -0.1997254711
 DE(Corr)=  0.69498911     E(CORR)=     -98.887893883     Delta=-9.59D+04
 NORM(A)=   0.11022961D+01
 Iteration Nr.   9
 **********************
 DD1Dir will call FoFMem   1 times, MxPair=        20
 NAB=    10 NAA=     0 NBB=     0.
 A-vector RMS=  1.4333075D-01 Max=  2.5910598D+00 conv= 1.00D-05.
 RLE energy=       -0.1871759472
 DE(Corr)= -0.72702019     E(CORR)=     -100.30990318     Delta=-1.42D+00
 NORM(A)=   0.11114043D+01
 Iteration Nr.  10
 **********************
 DD1Dir will call FoFMem   1 times, MxPair=        20
 NAB=    10 NAA=     0 NBB=     0.
 A-vector RMS=  2.3786855D-01 Max=  2.9023544D+00 conv= 1.00D-05.
 RLE energy=       -0.1837864832
 DE(Corr)= -0.47877241     E(CORR)=     -100.06165539     Delta= 2.48D-01
 NORM(A)=   0.11176165D+01
 Iteration Nr.  11
 **********************
 DD1Dir will call FoFMem   1 times, MxPair=        20
 NAB=    10 NAA=     0 NBB=     0.
 A-vector RMS=  2.5256980D-01 Max=  2.9498866D+00 conv= 1.00D-05.
 RLE energy=       -0.1887147747
 DE(Corr)= -0.42019447     E(CORR)=     -100.00307746     Delta= 5.86D-02
 NORM(A)=   0.11127361D+01
 Iteration Nr.  12
 **********************
 DD1Dir will call FoFMem   1 times, MxPair=        20
 NAB=    10 NAA=     0 NBB=     0.
 A-vector RMS=  2.4098596D-01 Max=  2.9520534D+00 conv= 1.00D-05.
 RLE energy=        0.9448981407
 DE(Corr)= -0.48816688     E(CORR)=     -100.07104987     Delta=-6.80D-02
 NORM(A)=   0.44465578D+01
 Iteration Nr.  13
 **********************
 DD1Dir will call FoFMem   1 times, MxPair=        20
 NAB=    10 NAA=     0 NBB=     0.
 A-vector RMS=  4.2510357D+00 Max=  3.8368425D+01 conv= 1.00D-05.
 RLE energy=       -0.1657571020
 DE(Corr)=   199.95754     E(CORR)=      100.37465790     Delta= 2.00D+02
 NORM(A)=   0.13269122D+01
 Iteration Nr.  14
 **********************
 DD1Dir will call FoFMem   1 times, MxPair=        20
 NAB=    10 NAA=     0 NBB=     0.
 A-vector RMS=  7.4249924D-02 Max=  1.3288879D+00 conv= 1.00D-05.
 RLE energy=       -0.0368126676
 DE(Corr)= -0.38385462     E(CORR)=     -99.966737611     Delta=-2.00D+02
 NORM(A)=   0.18860215D+01
 Iteration Nr.  15
 **********************
 DD1Dir will call FoFMem   1 times, MxPair=        20
 NAB=    10 NAA=     0 NBB=     0.
 A-vector RMS=  5.5481254D-01 Max=  3.3782009D+00 conv= 1.00D-05.
 RLE energy=       -0.1693289176
 DE(Corr)=   4.5658215     E(CORR)=     -95.017061476     Delta= 4.95D+00
 NORM(A)=   0.12415012D+01
 Iteration Nr.  16
 **********************
 DD1Dir will call FoFMem   1 times, MxPair=        20
 NAB=    10 NAA=     0 NBB=     0.
 A-vector RMS=  2.6269661D-01 Max=  2.9853463D+00 conv= 1.00D-05.
 RLE energy=        1.4471514029
 DE(Corr)= -0.28348697     E(CORR)=     -99.866369954     Delta=-4.85D+00
 NORM(A)=   0.52063553D+01
 Iteration Nr.  17
 **********************
 DD1Dir will call FoFMem   1 times, MxPair=        20
 NAB=    10 NAA=     0 NBB=     0.
 A-vector RMS=  2.0170490D+01 Max=  2.3678387D+02 conv= 1.00D-05.
 RLE energy=        0.0045662144
 DE(Corr)=   3987.3487     E(CORR)=      3887.7658556     Delta= 3.99D+03
 NORM(A)=   0.15614037D+01
 Iteration Nr.  18
 **********************
 DD1Dir will call FoFMem   1 times, MxPair=        20
 NAB=    10 NAA=     0 NBB=     0.
 A-vector RMS=  6.9972322D-01 Max=  4.2994546D+00 conv= 1.00D-05.
 RLE energy=        4.4313836118
 DE(Corr)=   3.9484488     E(CORR)=     -95.634434217     Delta=-3.98D+03
 NORM(A)=   0.68229077D+01
 Iteration Nr.  19
 **********************
 DD1Dir will call FoFMem   1 times, MxPair=        20
 NAB=    10 NAA=     0 NBB=     0.
 A-vector RMS=  6.3119783D+01 Max=  7.6363171D+02 conv= 1.00D-05.
 RLE energy=       -0.1002809714
 DE(Corr)=   38746.768     E(CORR)=      38647.185432     Delta= 3.87D+04
 NORM(A)=   0.14117247D+01
 Iteration Nr.  20
 **********************
 DD1Dir will call FoFMem   1 times, MxPair=        20
 NAB=    10 NAA=     0 NBB=     0.
 A-vector RMS=  3.5157580D-01 Max=  2.1084880D+00 conv= 1.00D-05.
 RLE energy=       -0.1316102184
 DE(Corr)=   1.1594003     E(CORR)=     -98.423482716     Delta=-3.87D+04
 NORM(A)=   0.12888237D+01
 Iteration Nr.  21
 **********************
 DD1Dir will call FoFMem   1 times, MxPair=        20
 NAB=    10 NAA=     0 NBB=     0.
 A-vector RMS=  3.6212986D-01 Max=  2.7329071D+00 conv= 1.00D-05.
 RLE energy=       -0.1272844174
 DE(Corr)=  0.58518154     E(CORR)=     -98.997701450     Delta=-5.74D-01
 NORM(A)=   0.12929438D+01
 Iteration Nr.  22
 **********************
 DD1Dir will call FoFMem   1 times, MxPair=        20
 NAB=    10 NAA=     0 NBB=     0.
 A-vector RMS=  3.5986726D-01 Max=  2.7558924D+00 conv= 1.00D-05.
 RLE energy=       -0.6770617340
 DE(Corr)=  0.53703551     E(CORR)=     -99.045847481     Delta=-4.81D-02
 NORM(A)=   0.18371471D+01
 Iteration Nr.  23
 **********************
 DD1Dir will call FoFMem   1 times, MxPair=        20
 NAB=    10 NAA=     0 NBB=     0.
 A-vector RMS=  1.3550397D+00 Max=  9.8749031D+00 conv= 1.00D-05.
 RLE energy=       -0.2233307378
 DE(Corr)=   19.911575     E(CORR)=     -79.671308311     Delta= 1.94D+01
 NORM(A)=   0.10860954D+01
 Iteration Nr.  24
 **********************
 DD1Dir will call FoFMem   1 times, MxPair=        20
 NAB=    10 NAA=     0 NBB=     0.
 A-vector RMS=  2.7664757D-02 Max=  2.1427742D+00 conv= 1.00D-05.
 RLE energy=        8.8718910677
 DE(Corr)= -0.83630390     E(CORR)=     -100.41918689     Delta=-2.07D+01
 NORM(A)=   0.83980332D+01
 Iteration Nr.  25
 **********************
 DD1Dir will call FoFMem   1 times, MxPair=        20
 NAB=    10 NAA=     0 NBB=     0.
 A-vector RMS=  2.0629907D+02 Max=  3.6789516D+03 conv= 1.00D-05.
 RLE energy=       -0.1646154081
 DE(Corr)=   378742.77     E(CORR)=      378643.18644     Delta= 3.79D+05
 NORM(A)=   0.11415672D+01
 Iteration Nr.  26
 **********************
 DD1Dir will call FoFMem   1 times, MxPair=        20
 NAB=    10 NAA=     0 NBB=     0.
 A-vector RMS=  2.7747832D-01 Max=  2.8486104D+00 conv= 1.00D-05.
 RLE energy=       -0.2076070674
 DE(Corr)= -0.17023368     E(CORR)=     -99.753116665     Delta=-3.79D+05
 NORM(A)=   0.11039277D+01
 Iteration Nr.  27
 **********************
 DD1Dir will call FoFMem   1 times, MxPair=        20
 NAB=    10 NAA=     0 NBB=     0.
 A-vector RMS=  9.7441826D-02 Max=  2.3812149D+00 conv= 1.00D-05.
 RLE energy=       -0.1982944941
 DE(Corr)= -0.77821981     E(CORR)=     -100.36110280     Delta=-6.08D-01
 NORM(A)=   0.11081525D+01
 Iteration Nr.  28
 **********************
 DD1Dir will call FoFMem   1 times, MxPair=        20
 NAB=    10 NAA=     0 NBB=     0.
 A-vector RMS=  1.4887907D-01 Max=  2.5483184D+00 conv= 1.00D-05.
 RLE energy=       -0.1988123183
 DE(Corr)= -0.68260135     E(CORR)=     -100.26548434     Delta= 9.56D-02
 NORM(A)=   0.11077899D+01
 Iteration Nr.  29
 **********************
 DD1Dir will call FoFMem   1 times, MxPair=        20
 NAB=    10 NAA=     0 NBB=     0.
 A-vector RMS=  1.4457909D-01 Max=  2.5412772D+00 conv= 1.00D-05.
 RLE energy=       -0.2004706868
 DE(Corr)= -0.69493170     E(CORR)=     -100.27781469     Delta=-1.23D-02
 NORM(A)=   0.11057143D+01
 Iteration Nr.  30
 **********************
 DD1Dir will call FoFMem   1 times, MxPair=        20
 NAB=    10 NAA=     0 NBB=     0.
 A-vector RMS=  1.4329633D-01 Max=  2.5476123D+00 conv= 1.00D-05.
 RLE energy=        4.8503422730
 DE(Corr)= -0.70383113     E(CORR)=     -100.28671412     Delta=-8.90D-03
 NORM(A)=   0.64851532D+01
 Iteration Nr.  31
 **********************
 DD1Dir will call FoFMem   1 times, MxPair=        20
 NAB=    10 NAA=     0 NBB=     0.
 A-vector RMS=  8.3785724D+01 Max=  1.0995510D+03 conv= 1.00D-05.
 RLE energy=       -0.1873253795
 DE(Corr)=   67246.097     E(CORR)=      67146.514021     Delta= 6.72D+04
 NORM(A)=   0.11185357D+01
 Iteration Nr.  32
 **********************
 DD1Dir will call FoFMem   1 times, MxPair=        20
 NAB=    10 NAA=     0 NBB=     0.
 A-vector RMS=  2.0384866D-01 Max=  2.7317621D+00 conv= 1.00D-05.
 RLE energy=       -0.1852122705
 DE(Corr)= -0.52712720     E(CORR)=     -100.11001019     Delta=-6.72D+04
 NORM(A)=   0.11220767D+01
 Iteration Nr.  33
 **********************
 DD1Dir will call FoFMem   1 times, MxPair=        20
 NAB=    10 NAA=     0 NBB=     0.
 A-vector RMS=  1.9218116D-01 Max=  2.6669970D+00 conv= 1.00D-05.
 RLE energy=       -0.1799630035
 DE(Corr)= -0.54782930     E(CORR)=     -100.13071229     Delta=-2.07D-02
 NORM(A)=   0.11252864D+01
 Iteration Nr.  34
 **********************
 DD1Dir will call FoFMem   1 times, MxPair=        20
 NAB=    10 NAA=     0 NBB=     0.
 A-vector RMS=  2.2207526D-01 Max=  2.7533073D+00 conv= 1.00D-05.
 RLE energy=       -0.1868145495
 DE(Corr)= -0.44590414     E(CORR)=     -100.02878713     Delta= 1.02D-01
 NORM(A)=   0.11184017D+01
 Iteration Nr.  35
 **********************
 DD1Dir will call FoFMem   1 times, MxPair=        20
 NAB=    10 NAA=     0 NBB=     0.
 A-vector RMS=  1.9404413D-01 Max=  2.6907222D+00 conv= 1.00D-05.
 RLE energy=       -0.1824427657
 DE(Corr)= -0.55480266     E(CORR)=     -100.13768565     Delta=-1.09D-01
 NORM(A)=   0.11214571D+01
 Iteration Nr.  36
 **********************
 DD1Dir will call FoFMem   1 times, MxPair=        20
 NAB=    10 NAA=     0 NBB=     0.
 A-vector RMS=  2.1143627D-01 Max=  2.7428913D+00 conv= 1.00D-05.
 RLE energy=       49.8755310242
 DE(Corr)= -0.49837251     E(CORR)=     -100.08125550     Delta= 5.64D-02
 NORM(A)=   0.22453352D+02
 Iteration Nr.  37
 **********************
 DD1Dir will call FoFMem   1 times, MxPair=        20
 NAB=    10 NAA=     0 NBB=     0.
 A-vector RMS=  2.6734499D+03 Max=  9.3396527D+04 conv= 1.00D-05.
 RLE energy=       -0.1963988191
 DE(Corr)=   48482945.     E(CORR)=      48482845.222     Delta= 4.85D+07
 NORM(A)=   0.12208615D+01
 Iteration Nr.  38
 **********************
 DD1Dir will call FoFMem   1 times, MxPair=        20
 NAB=    10 NAA=     0 NBB=     0.
 A-vector RMS=  1.9540196D-02 Max=  1.4378939D+00 conv= 1.00D-05.
 RLE energy=       -0.2055190802
 DE(Corr)= -0.62039703     E(CORR)=     -100.20328002     Delta=-4.85D+07
 NORM(A)=   0.12088749D+01
 Iteration Nr.  39
 **********************
 DD1Dir will call FoFMem   1 times, MxPair=        20
 NAB=    10 NAA=     0 NBB=     0.
 A-vector RMS=  3.5895814D-02 Max=  1.3608415D+00 conv= 1.00D-05.
 RLE energy=       -0.2055557782
 DE(Corr)= -0.62299577     E(CORR)=     -100.20587876     Delta=-2.60D-03
 NORM(A)=   0.12328861D+01
 Iteration Nr.  40
 **********************
 DD1Dir will call FoFMem   1 times, MxPair=        20
 NAB=    10 NAA=     0 NBB=     0.
 A-vector RMS=  6.3905471D-02 Max=  1.1016469D+00 conv= 1.00D-05.
 RLE energy=       -0.1999477129
 DE(Corr)= -0.55911081     E(CORR)=     -100.14199380     Delta= 6.39D-02
 NORM(A)=   0.11938012D+01
 Iteration Nr.  41
 **********************
 DD1Dir will call FoFMem   1 times, MxPair=        20
 NAB=    10 NAA=     0 NBB=     0.
 A-vector RMS=  2.5171745D-02 Max=  1.5711283D+00 conv= 1.00D-05.
 RLE energy=       -0.2098571701
 DE(Corr)= -0.63754003     E(CORR)=     -100.22042302     Delta=-7.84D-02
 NORM(A)=   0.12243837D+01
 Iteration Nr.  42
 **********************
 DD1Dir will call FoFMem   1 times, MxPair=        20
 NAB=    10 NAA=     0 NBB=     0.
 A-vector RMS=  6.6384573D-02 Max=  1.1110397D+00 conv= 1.00D-05.
 RLE energy=       -0.4689237742
 DE(Corr)= -0.56572875     E(CORR)=     -100.14861173     Delta= 7.18D-02
 NORM(A)=   0.15320951D+01
 Iteration Nr.  43
 **********************
 DD1Dir will call FoFMem   1 times, MxPair=        20
 NAB=    10 NAA=     0 NBB=     0.
 A-vector RMS=  3.9342709D-01 Max=  2.4141745D+00 conv= 1.00D-05.
 RLE energy=       -0.3369690015
 DE(Corr)=  0.74958809     E(CORR)=     -98.833294902     Delta= 1.32D+00
 NORM(A)=   0.13548455D+01
 Iteration Nr.  44
 **********************
 DD1Dir will call FoFMem   1 times, MxPair=        20
 NAB=    10 NAA=     0 NBB=     0.
 A-vector RMS=  5.7133497D-01 Max=  3.5106894D+00 conv= 1.00D-05.
 RLE energy=       -0.4794062745
 DE(Corr)=   2.8813698     E(CORR)=     -96.701513186     Delta= 2.13D+00
 NORM(A)=   0.17544197D+01
 Iteration Nr.  45
 **********************
 DD1Dir will call FoFMem   1 times, MxPair=        20
 NAB=    10 NAA=     0 NBB=     0.
 A-vector RMS=  4.8330433D-01 Max=  2.9598377D+00 conv= 1.00D-05.
 RLE energy=       -0.3725583471
 DE(Corr)=   1.2557628     E(CORR)=     -98.327120205     Delta=-1.63D+00
 NORM(A)=   0.11148697D+01
 Iteration Nr.  46
 **********************
 DD1Dir will call FoFMem   1 times, MxPair=        20
 NAB=    10 NAA=     0 NBB=     0.
 A-vector RMS=  2.3675642D-01 Max=  1.4304589D+00 conv= 1.00D-05.
 RLE energy=        0.4638866976
 DE(Corr)= -0.12265351     E(CORR)=     -99.705536495     Delta=-1.38D+00
 NORM(A)=   0.27543197D+01
 Iteration Nr.  47
 **********************
 DD1Dir will call FoFMem   1 times, MxPair=        20
 NAB=    10 NAA=     0 NBB=     0.
 A-vector RMS=  4.5092950D+00 Max=  2.7335859D+01 conv= 1.00D-05.
 RLE energy=       -0.0061808327
 DE(Corr)=   227.82187     E(CORR)=      128.23898408     Delta= 2.28D+02
 NORM(A)=   0.17643783D+01
 Iteration Nr.  48
 **********************
 DD1Dir will call FoFMem   1 times, MxPair=        20
 NAB=    10 NAA=     0 NBB=     0.
 A-vector RMS=  8.5547005D-01 Max=  5.2617925D+00 conv= 1.00D-05.
 RLE energy=       -0.3043524933
 DE(Corr)=   4.9965249     E(CORR)=     -94.586358132     Delta=-2.23D+02
 NORM(A)=   0.13262811D+01
 Iteration Nr.  49
 **********************
 DD1Dir will call FoFMem   1 times, MxPair=        20
 NAB=    10 NAA=     0 NBB=     0.
 A-vector RMS=  3.5614484D-01 Max=  2.7474158D+00 conv= 1.00D-05.
 RLE energy=       -0.3924445443
 DE(Corr)= -0.34091657     E(CORR)=     -99.923799559     Delta=-5.34D+00
 NORM(A)=   0.14911958D+01
 Iteration Nr.  50
 **********************
 DD1Dir will call FoFMem   1 times, MxPair=        20
 NAB=    10 NAA=     0 NBB=     0.
 A-vector RMS=  4.2615731D-01 Max=  2.5942750D+00 conv= 1.00D-05.
 RLE energy=       -0.3808177141
 DE(Corr)=  0.41265918     E(CORR)=     -99.170223808     Delta= 7.54D-01
 NORM(A)=   0.16415347D+01
 *************
 *MAX. CYCLES*
 *************
 Dominant configurations:
 ***********************
 Spin Case        I    J    A    B          Value
    AA            5         6           -0.205530D+01
   ABAB           5    5    6    6      -0.228521D+01
   ABAB           5    5    6    7       0.115156D+00
   ABAB           5    5    7    6       0.115156D+00
 Largest amplitude= 2.29D+00
 Error termination via Lnk1e in C:\G16W\l913.exe at Sun Sep 07 23:28:57 2025.
 Job cpu time:       0 days  0 hours  0 minutes 27.0 seconds.
 Elapsed time:       0 days  0 hours  0 minutes 27.0 seconds.
 File lengths (MBytes):  RWF=     27 Int=      0 D2E=      0 Chk=      1 Scr=      1
