 Entering Link 1 = C:\G16W\l1.exe PID=      4952.
  
 Copyright (c) 1988-2017, Gaussian, Inc.  All Rights Reserved.
  
 This is part of the Gaussian(R) 16 program.  It is based on
 the Gaussian(R) 09 system (copyright 2009, Gaussian, Inc.),
 the Gaussian(R) 03 system (copyright 2003, Gaussian, Inc.),
 the Gaussian(R) 98 system (copyright 1998, Gaussian, Inc.),
 the Gaussian(R) 94 system (copyright 1995, Gaussian, Inc.),
 the Gaussian 92(TM) system (copyright 1992, Gaussian, Inc.),
 the Gaussian 90(TM) system (copyright 1990, Gaussian, Inc.),
 the Gaussian 88(TM) system (copyright 1988, Gaussian, Inc.),
 the Gaussian 86(TM) system (copyright 1986, Carnegie Mellon
 University), and the Gaussian 82(TM) system (copyright 1983,
 Carnegie Mellon University). Gaussian is a federally registered
 trademark of Gaussian, Inc.
  
 This software contains proprietary and confidential information,
 including trade secrets, belonging to Gaussian, Inc.
  
 This software is provided under written license and may be
 used, copied, transmitted, or stored only in accord with that
 written license.
  
 The following legend is applicable only to US Government
 contracts under FAR:
  
                    RESTRICTED RIGHTS LEGEND
  
 Use, reproduction and disclosure by the US Government is
 subject to restrictions as set forth in subparagraphs (a)
 and (c) of the Commercial Computer Software - Restricted
 Rights clause in FAR 52.227-19.
  
 Gaussian, Inc.
 340 Quinnipiac St., Bldg. 40, Wallingford CT 06492
  
  
 ---------------------------------------------------------------
 Warning -- This program may not be used in any manner that
 competes with the business of Gaussian, Inc. or will provide
 assistance to any competitor of Gaussian, Inc.  The licensee
 of this program is prohibited from giving any competitor of
 Gaussian, Inc. access to this program.  By using this program,
 the user acknowledges that Gaussian, Inc. is engaged in the
 business of creating and licensing software in the field of
 computational chemistry and represents and warrants to the
 licensee that it is not a competitor of Gaussian, Inc. and that
 it will not use this program in any manner prohibited above.
 ---------------------------------------------------------------
  

 Cite this work as:
 Gaussian 16, Revision B.01,
 M. J. Frisch, G. W. Trucks, H. B. Schlegel, G. E. Scuseria, 
 M. A. Robb, J. R. Cheeseman, G. Scalmani, V. Barone, 
 G. A. Petersson, H. Nakatsuji, X. Li, M. Caricato, A. V. Marenich, 
 J. Bloino, B. G. Janesko, R. Gomperts, B. Mennucci, H. P. Hratchian, 
 J. V. Ortiz, A. F. Izmaylov, J. L. Sonnenberg, D. Williams-Young, 
 F. Ding, F. Lipparini, F. Egidi, J. Goings, B. Peng, A. Petrone, 
 T. Henderson, D. Ranasinghe, V. G. Zakrzewski, J. Gao, N. Rega, 
 G. Zheng, W. Liang, M. Hada, M. Ehara, K. Toyota, R. Fukuda, 
 J. Hasegawa, M. Ishida, T. Nakajima, Y. Honda, O. Kitao, H. Nakai, 
 T. Vreven, K. Throssell, J. A. Montgomery, Jr., J. E. Peralta, 
 F. Ogliaro, M. J. Bearpark, J. J. Heyd, E. N. Brothers, K. N. Kudin, 
 V. N. Staroverov, T. A. Keith, R. Kobayashi, J. Normand, 
 K. Raghavachari, A. P. Rendell, J. C. Burant, S. S. Iyengar, 
 J. Tomasi, M. Cossi, J. M. Millam, M. Klene, C. Adamo, R. Cammi, 
 J. W. Ochterski, R. L. Martin, K. Morokuma, O. Farkas, 
 J. B. Foresman, and D. J. Fox, Gaussian, Inc., Wallingford CT, 2016.
 
 ******************************************
 Gaussian 16:  EM64W-G16RevB.01 16-Dec-2017
                03-Sep-2025 
 ******************************************
 %chk=HCl.chk
 %mem=4GB
 %nproc=1
 Will use up to    1 processors via shared memory.
 --------------------------------------------------------
 #p hf/cc-pVTZ opt=(tight,calcfc) freq scf=tight pop=full
 --------------------------------------------------------
 1/7=10,10=4,18=20,19=15,38=1/1,3;
 2/9=110,12=2,17=6,18=5,40=1/2;
 3/5=16,6=1,11=9,25=1,30=1,71=2,140=1/1,2,3;
 4//1;
 5/5=2,32=2,38=5/2;
 8/6=4,10=90,11=11/1;
 11/6=1,8=1,9=11,15=111,16=1/1,2,10;
 10/6=1,13=1/2;
 6/7=3,28=1/1;
 7/10=1,18=20,25=1/1,2,3,16;
 1/7=10,10=4,18=20,19=15/3(2);
 2/9=110/2;
 99//99;
 2/9=110/2;
 3/5=16,6=1,11=9,25=1,30=1,71=1/1,2,3;
 4/5=5,16=3,69=1/1;
 5/5=2,32=2,38=5/2;
 7//1,2,3,16;
 1/7=10,18=20,19=15/3(-5);
 2/9=110/2;
 6/7=3,19=2,28=1/1;
 99/9=1/99;
 Leave Link    1 at Wed Sep 03 17:59:00 2025, MaxMem=   536870912 cpu:               0.0 elap:               0.0
 (Enter C:\G16W\l101.exe)
 ------------------------------------------------------------
 Calculation of the ground state energy with STO-3G basis set
 ------------------------------------------------------------
 Symbolic Z-matrix:
 Charge =  0 Multiplicity = 1
 Cl
 H                    1    B1
       Variables:
  B1                    1.275                    
 
 ITRead=  0  0
 MicOpt= -1 -1
 NAtoms=      2 NQM=        2 NQMF=       0 NMMI=      0 NMMIF=      0
                NMic=       0 NMicF=      0.
                    Isotopes and Nuclear Properties:
 (Nuclear quadrupole moments (NQMom) in fm**2, nuclear magnetic moments (NMagM)
  in nuclear magnetons)

  Atom         1           2
 IAtWgt=          35           1
 AtmWgt=  34.9688527   1.0078250
 NucSpn=           3           1
 AtZEff=   0.0000000   0.0000000
 NQMom=   -8.1650000   0.0000000
 NMagM=    0.8218740   2.7928460
 AtZNuc=  17.0000000   1.0000000
 Leave Link  101 at Wed Sep 03 17:59:00 2025, MaxMem=   536870912 cpu:               0.0 elap:               0.1
 (Enter C:\G16W\l103.exe)

 GradGradGradGradGradGradGradGradGradGradGradGradGradGradGradGradGradGrad
 Berny optimization.
 Initialization pass.
                           ----------------------------
                           !    Initial Parameters    !
                           ! (Angstroms and Degrees)  !
 --------------------------                            --------------------------
 ! Name  Definition              Value          Derivative Info.                !
 --------------------------------------------------------------------------------
 ! R1    R(1,2)                  1.275          calculate D2E/DX2 analytically  !
 --------------------------------------------------------------------------------
 Trust Radius=3.00D-01 FncErr=1.00D-07 GrdErr=1.00D-07 EigMax=2.50D+02 EigMin=1.00D-04
 Number of steps in this run=     20 maximum allowed number of steps=    100.
 GradGradGradGradGradGradGradGradGradGradGradGradGradGradGradGradGradGrad

 Leave Link  103 at Wed Sep 03 17:59:00 2025, MaxMem=   536870912 cpu:               0.0 elap:               0.0
 (Enter C:\G16W\l202.exe)
                          Input orientation:                          
 ---------------------------------------------------------------------
 Center     Atomic      Atomic             Coordinates (Angstroms)
 Number     Number       Type             X           Y           Z
 ---------------------------------------------------------------------
      1         17           0        0.000000    0.000000    0.000000
      2          1           0        0.000000    0.000000    1.275000
 ---------------------------------------------------------------------
 Stoichiometry    ClH
 Framework group  C*V[C*(HCl)]
 Deg. of freedom     1
 Full point group                 C*V     NOp   4
 Largest Abelian subgroup         C2V     NOp   4
 Largest concise Abelian subgroup C1      NOp   1
                         Standard orientation:                         
 ---------------------------------------------------------------------
 Center     Atomic      Atomic             Coordinates (Angstroms)
 Number     Number       Type             X           Y           Z
 ---------------------------------------------------------------------
      1         17           0        0.000000    0.000000    0.070833
      2          1           0        0.000000    0.000000   -1.204167
 ---------------------------------------------------------------------
 Rotational constants (GHZ):           0.0000000         317.3593948         317.3593948
 Leave Link  202 at Wed Sep 03 17:59:00 2025, MaxMem=   536870912 cpu:               0.0 elap:               0.0
 (Enter C:\G16W\l301.exe)
 Standard basis: CC-pVTZ (5D, 7F)
 Ernie: Thresh=  0.10000D-02 Tol=  0.10000D-05 Strict=F.
 Ernie:  13 primitive shells out of 68 were deleted.
 There are    26 symmetry adapted cartesian basis functions of A1  symmetry.
 There are     4 symmetry adapted cartesian basis functions of A2  symmetry.
 There are    12 symmetry adapted cartesian basis functions of B1  symmetry.
 There are    12 symmetry adapted cartesian basis functions of B2  symmetry.
 There are    22 symmetry adapted basis functions of A1  symmetry.
 There are     4 symmetry adapted basis functions of A2  symmetry.
 There are    11 symmetry adapted basis functions of B1  symmetry.
 There are    11 symmetry adapted basis functions of B2  symmetry.
    48 basis functions,   111 primitive gaussians,    54 cartesian basis functions
     9 alpha electrons        9 beta electrons
       nuclear repulsion energy         7.0556961456 Hartrees.
 IExCor=    0 DFT=F Ex=HF Corr=None ExCW=0 ScaHFX=  1.000000
 ScaDFX=  1.000000  1.000000  1.000000  1.000000 ScalE2=  1.000000  1.000000
 IRadAn=      5 IRanWt=     -1 IRanGd=            0 ICorTp=0 IEmpDi=  4
 NAtoms=    2 NActive=    2 NUniq=    2 SFac= 1.00D+00 NAtFMM=   60 NAOKFM=F Big=F
 Integral buffers will be    131072 words long.
 Raffenetti 1 integral format.
 Two-electron integral symmetry is turned on.
 Leave Link  301 at Wed Sep 03 17:59:00 2025, MaxMem=   536870912 cpu:               0.0 elap:               0.0
 (Enter C:\G16W\l302.exe)
 NPDir=0 NMtPBC=     1 NCelOv=     1 NCel=       1 NClECP=     1 NCelD=      1
         NCelK=      1 NCelE2=     1 NClLst=     1 CellRange=     0.0.
 One-electron integrals computed using PRISM.
 One-electron integral symmetry used in STVInt
 NBasis=    48 RedAO= T EigKep=  3.93D-03  NBF=    22     4    11    11
 NBsUse=    48 1.00D-06 EigRej= -1.00D+00 NBFU=    22     4    11    11
 Leave Link  302 at Wed Sep 03 17:59:00 2025, MaxMem=   536870912 cpu:               0.0 elap:               0.1
 (Enter C:\G16W\l303.exe)
 DipDrv:  MaxL=1.
 Leave Link  303 at Wed Sep 03 17:59:00 2025, MaxMem=   536870912 cpu:               0.0 elap:               0.0
 (Enter C:\G16W\l401.exe)
 ExpMin= 1.03D-01 ExpMax= 4.56D+05 ExpMxC= 1.44D+03 IAcc=3 IRadAn=         5 AccDes= 0.00D+00
 Harris functional with IExCor=  205 and IRadAn=       5 diagonalized for initial guess.
 HarFok:  IExCor=  205 AccDes= 0.00D+00 IRadAn=         5 IDoV= 1 UseB2=F ITyADJ=14
 ICtDFT=  3500011 ScaDFX=  1.000000  1.000000  1.000000  1.000000
 FoFCou: FMM=F IPFlag=           0 FMFlag=      100000 FMFlg1=           0
         NFxFlg=           0 DoJE=T BraDBF=F KetDBF=T FulRan=T
         wScrn=  0.000000 ICntrl=       500 IOpCl=  0 I1Cent=   200000004 NGrid=           0
         NMat0=    1 NMatS0=      1 NMatT0=    0 NMatD0=    1 NMtDS0=    0 NMtDT0=    0
 Petite list used in FoFCou.
 Harris En= -459.666196891439    
 JPrj=0 DoOrth=F DoCkMO=F.
 Initial guess orbital symmetries:
       Occupied  (SG) (SG) (SG) (PI) (PI) (SG) (SG) (PI) (PI)
       Virtual   (SG) (SG) (SG) (PI) (PI) (PI) (PI) (DLTA) (DLTA)
                 (SG) (SG) (PI) (PI) (SG) (SG) (PI) (PI) (DLTA)
                 (DLTA) (DLTA) (DLTA) (PHI) (PHI) (SG) (PI) (PI)
                 (PI) (PI) (SG) (SG) (DLTA) (DLTA) (PI) (PI) (SG)
                 (PI) (PI) (SG) (SG)
 The electronic state of the initial guess is 1-SG.
 Leave Link  401 at Wed Sep 03 17:59:01 2025, MaxMem=   536870912 cpu:               1.0 elap:               0.1
 (Enter C:\G16W\l502.exe)
 Keep R1 ints in memory in symmetry-blocked form, NReq=2675691.
 FoFCou: FMM=F IPFlag=           0 FMFlag=           0 FMFlg1=           0
         NFxFlg=           0 DoJE=F BraDBF=F KetDBF=F FulRan=T
         wScrn=  0.000000 ICntrl=       600 IOpCl=  0 I1Cent=           0 NGrid=           0
         NMat0=    1 NMatS0=   1176 NMatT0=    0 NMatD0=    1 NMtDS0=    0 NMtDT0=    0
 Petite list used in FoFCou.
 Closed shell SCF:
 Using DIIS extrapolation, IDIIS=  1040.
 NGot=   536870912 LenX=   536677509 LenY=   536674152
 Requested convergence on RMS density matrix=1.00D-08 within 128 cycles.
 Requested convergence on MAX density matrix=1.00D-06.
 Requested convergence on             energy=1.00D-06.
 No special actions if energy rises.

 Cycle   1  Pass 1  IDiag  1:
 E= -460.085990630140    
 DIIS: error= 7.47D-02 at cycle   1 NSaved=   1.
 NSaved= 1 IEnMin= 1 EnMin= -460.085990630140     IErMin= 1 ErrMin= 7.47D-02
 ErrMax= 7.47D-02  0.00D+00 EMaxC= 1.00D-01 BMatC= 1.21D-01 BMatP= 1.21D-01
 IDIUse=3 WtCom= 2.53D-01 WtEn= 7.47D-01
 Coeff-Com:  0.100D+01
 Coeff-En:   0.100D+01
 Coeff:      0.100D+01
 Gap=     0.603 Goal=   None    Shift=    0.000
 GapD=    0.603 DampG=2.000 DampE=0.500 DampFc=1.0000 IDamp=-1.
 RMSDP=2.80D-03 MaxDP=5.95D-02              OVMax= 2.26D-02

 Cycle   2  Pass 1  IDiag  1:
 E= -460.106439593322     Delta-E=       -0.020448963182 Rises=F Damp=F
 DIIS: error= 2.26D-03 at cycle   2 NSaved=   2.
 NSaved= 2 IEnMin= 2 EnMin= -460.106439593322     IErMin= 2 ErrMin= 2.26D-03
 ErrMax= 2.26D-03  0.00D+00 EMaxC= 1.00D-01 BMatC= 2.81D-04 BMatP= 1.21D-01
 IDIUse=3 WtCom= 9.77D-01 WtEn= 2.26D-02
 Coeff-Com: -0.156D-01 0.102D+01
 Coeff-En:   0.000D+00 0.100D+01
 Coeff:     -0.153D-01 0.102D+01
 Gap=     0.602 Goal=   None    Shift=    0.000
 RMSDP=4.57D-04 MaxDP=8.55D-03 DE=-2.04D-02 OVMax= 6.64D-03

 Cycle   3  Pass 1  IDiag  1:
 E= -460.106775192251     Delta-E=       -0.000335598929 Rises=F Damp=F
 DIIS: error= 8.38D-04 at cycle   3 NSaved=   3.
 NSaved= 3 IEnMin= 3 EnMin= -460.106775192251     IErMin= 3 ErrMin= 8.38D-04
 ErrMax= 8.38D-04  0.00D+00 EMaxC= 1.00D-01 BMatC= 2.18D-05 BMatP= 2.81D-04
 IDIUse=3 WtCom= 9.92D-01 WtEn= 8.38D-03
 Coeff-Com: -0.634D-03-0.446D-01 0.105D+01
 Coeff-En:   0.000D+00 0.000D+00 0.100D+01
 Coeff:     -0.629D-03-0.442D-01 0.104D+01
 Gap=     0.599 Goal=   None    Shift=    0.000
 RMSDP=8.97D-05 MaxDP=1.23D-03 DE=-3.36D-04 OVMax= 3.11D-03

 Cycle   4  Pass 1  IDiag  1:
 E= -460.106807654097     Delta-E=       -0.000032461846 Rises=F Damp=F
 DIIS: error= 3.01D-04 at cycle   4 NSaved=   4.
 NSaved= 4 IEnMin= 4 EnMin= -460.106807654097     IErMin= 4 ErrMin= 3.01D-04
 ErrMax= 3.01D-04  0.00D+00 EMaxC= 1.00D-01 BMatC= 2.85D-06 BMatP= 2.18D-05
 IDIUse=3 WtCom= 9.97D-01 WtEn= 3.01D-03
 Coeff-Com: -0.331D-03-0.609D-01 0.145D+00 0.916D+00
 Coeff-En:   0.000D+00 0.000D+00 0.000D+00 0.100D+01
 Coeff:     -0.330D-03-0.607D-01 0.144D+00 0.917D+00
 Gap=     0.600 Goal=   None    Shift=    0.000
 RMSDP=3.16D-05 MaxDP=3.99D-04 DE=-3.25D-05 OVMax= 7.61D-04

 Cycle   5  Pass 1  IDiag  1:
 E= -460.106812458294     Delta-E=       -0.000004804197 Rises=F Damp=F
 DIIS: error= 1.09D-04 at cycle   5 NSaved=   5.
 NSaved= 5 IEnMin= 5 EnMin= -460.106812458294     IErMin= 5 ErrMin= 1.09D-04
 ErrMax= 1.09D-04  0.00D+00 EMaxC= 1.00D-01 BMatC= 2.23D-07 BMatP= 2.85D-06
 IDIUse=3 WtCom= 9.99D-01 WtEn= 1.09D-03
 Coeff-Com:  0.509D-03 0.113D-01-0.981D-01-0.302D+00 0.139D+01
 Coeff-En:   0.000D+00 0.000D+00 0.000D+00 0.000D+00 0.100D+01
 Coeff:      0.509D-03 0.112D-01-0.980D-01-0.302D+00 0.139D+01
 Gap=     0.600 Goal=   None    Shift=    0.000
 RMSDP=1.59D-05 MaxDP=2.04D-04 DE=-4.80D-06 OVMax= 5.95D-04

 Cycle   6  Pass 1  IDiag  1:
 E= -460.106813156619     Delta-E=       -0.000000698325 Rises=F Damp=F
 DIIS: error= 1.33D-05 at cycle   6 NSaved=   6.
 NSaved= 6 IEnMin= 6 EnMin= -460.106813156619     IErMin= 6 ErrMin= 1.33D-05
 ErrMax= 1.33D-05  0.00D+00 EMaxC= 1.00D-01 BMatC= 4.21D-09 BMatP= 2.23D-07
 IDIUse=1 WtCom= 1.00D+00 WtEn= 0.00D+00
 Coeff-Com: -0.466D-04-0.533D-03 0.120D-01 0.115D-01-0.169D+00 0.115D+01
 Coeff:     -0.466D-04-0.533D-03 0.120D-01 0.115D-01-0.169D+00 0.115D+01
 Gap=     0.600 Goal=   None    Shift=    0.000
 RMSDP=1.87D-06 MaxDP=2.30D-05 DE=-6.98D-07 OVMax= 4.44D-05

 Cycle   7  Pass 1  IDiag  1:
 E= -460.106813165551     Delta-E=       -0.000000008932 Rises=F Damp=F
 DIIS: error= 3.06D-06 at cycle   7 NSaved=   7.
 NSaved= 7 IEnMin= 7 EnMin= -460.106813165551     IErMin= 7 ErrMin= 3.06D-06
 ErrMax= 3.06D-06  0.00D+00 EMaxC= 1.00D-01 BMatC= 1.83D-10 BMatP= 4.21D-09
 IDIUse=1 WtCom= 1.00D+00 WtEn= 0.00D+00
 Coeff-Com: -0.350D-04-0.631D-03 0.634D-02 0.165D-01-0.896D-01 0.829D-01
 Coeff-Com:  0.985D+00
 Coeff:     -0.350D-04-0.631D-03 0.634D-02 0.165D-01-0.896D-01 0.829D-01
 Coeff:      0.985D+00
 Gap=     0.600 Goal=   None    Shift=    0.000
 RMSDP=4.30D-07 MaxDP=5.89D-06 DE=-8.93D-09 OVMax= 1.17D-05

 Cycle   8  Pass 1  IDiag  1:
 E= -460.106813165881     Delta-E=       -0.000000000330 Rises=F Damp=F
 DIIS: error= 3.01D-07 at cycle   8 NSaved=   8.
 NSaved= 8 IEnMin= 8 EnMin= -460.106813165881     IErMin= 8 ErrMin= 3.01D-07
 ErrMax= 3.01D-07  0.00D+00 EMaxC= 1.00D-01 BMatC= 2.17D-12 BMatP= 1.83D-10
 IDIUse=1 WtCom= 1.00D+00 WtEn= 0.00D+00
 Coeff-Com:  0.449D-05 0.806D-04-0.957D-03-0.194D-02 0.130D-01-0.365D-01
 Coeff-Com: -0.763D-01 0.110D+01
 Coeff:      0.449D-05 0.806D-04-0.957D-03-0.194D-02 0.130D-01-0.365D-01
 Coeff:     -0.763D-01 0.110D+01
 Gap=     0.600 Goal=   None    Shift=    0.000
 RMSDP=4.11D-08 MaxDP=5.94D-07 DE=-3.30D-10 OVMax= 9.11D-07

 Cycle   9  Pass 1  IDiag  1:
 E= -460.106813165883     Delta-E=       -0.000000000002 Rises=F Damp=F
 DIIS: error= 3.88D-08 at cycle   9 NSaved=   9.
 NSaved= 9 IEnMin= 9 EnMin= -460.106813165883     IErMin= 9 ErrMin= 3.88D-08
 ErrMax= 3.88D-08  0.00D+00 EMaxC= 1.00D-01 BMatC= 3.69D-14 BMatP= 2.17D-12
 IDIUse=1 WtCom= 1.00D+00 WtEn= 0.00D+00
 Coeff-Com: -0.896D-06-0.152D-04 0.185D-03 0.402D-03-0.266D-02 0.879D-02
 Coeff-Com:  0.114D-01-0.299D+00 0.128D+01
 Coeff:     -0.896D-06-0.152D-04 0.185D-03 0.402D-03-0.266D-02 0.879D-02
 Coeff:      0.114D-01-0.299D+00 0.128D+01
 Gap=     0.600 Goal=   None    Shift=    0.000
 RMSDP=6.09D-09 MaxDP=8.15D-08 DE=-2.27D-12 OVMax= 1.71D-07

 SCF Done:  E(RHF) =  -460.106813166     A.U. after    9 cycles
            NFock=  9  Conv=0.61D-08     -V/T= 2.0000
 KE= 4.601128264278D+02 PE=-1.109997092569D+03 EE= 1.827217568298D+02
 Leave Link  502 at Wed Sep 03 17:59:01 2025, MaxMem=   536870912 cpu:               0.0 elap:               0.2
 (Enter C:\G16W\l801.exe)
 Range of M.O.s used for correlation:     1    48
 NBasis=    48 NAE=     9 NBE=     9 NFC=     0 NFV=     0
 NROrb=     48 NOA=     9 NOB=     9 NVA=    39 NVB=    39
 Leave Link  801 at Wed Sep 03 17:59:01 2025, MaxMem=   536870912 cpu:               0.0 elap:               0.0
 (Enter C:\G16W\l1101.exe)
 Using compressed storage, NAtomX=     2.
 Will process      3 centers per pass.
 Leave Link 1101 at Wed Sep 03 17:59:01 2025, MaxMem=   536870912 cpu:               0.0 elap:               0.0
 (Enter C:\G16W\l1102.exe)
 Symmetrizing basis deriv contribution to polar:
 IMax=3 JMax=2 DiffMx= 0.00D+00
 Leave Link 1102 at Wed Sep 03 17:59:01 2025, MaxMem=   536870912 cpu:               0.0 elap:               0.0
 (Enter C:\G16W\l1110.exe)
 Forming Gx(P) for the SCF density, NAtomX=     2.
 Integral derivatives from FoFJK, PRISM(SPDF).
 Do as many integral derivatives as possible in FoFJK.
 G2DrvN: MDV=     536870628.
 G2DrvN: will do     3 centers at a time, making    1 passes.
 Calling FoFCou, ICntrl=  3107 FMM=F I1Cent=   0 AccDes= 0.00D+00.
 FoFJK:  IHMeth= 1 ICntrl=    3107 DoSepK=F KAlg= 0 I1Cent=           0 FoldK=F
 IRaf=         0 NMat=       1 IRICut=       1 DoRegI=T DoRafI=F ISym2E= 1 IDoP0=0 IntGTp=1.
 FoFCou: FMM=F IPFlag=           0 FMFlag=      100000 FMFlg1=           0
         NFxFlg=           0 DoJE=F BraDBF=F KetDBF=F FulRan=T
         wScrn=  0.000000 ICntrl=      3107 IOpCl=  0 I1Cent=           0 NGrid=           0
         NMat0=    1 NMatS0=      1 NMatT0=    0 NMatD0=    1 NMtDS0=    0 NMtDT0=    0
 Petite list used in FoFCou.
 End of G2Drv F.D. properties file   721 does not exist.
 End of G2Drv F.D. properties file   722 does not exist.
 End of G2Drv F.D. properties file   788 does not exist.
 Leave Link 1110 at Wed Sep 03 17:59:01 2025, MaxMem=   536870912 cpu:               0.0 elap:               0.2
 (Enter C:\G16W\l1002.exe)
 Minotr:  Closed shell wavefunction.
          IDoAtm=11
          Direct CPHF calculation.
          Differentiating once with respect to nuclear coordinates.
          Using symmetry in CPHF.
          Requested convergence is 1.0D-08 RMS, and 1.0D-07 maximum.
          Secondary convergence is 1.0D-12 RMS, and 1.0D-12 maximum.
          NewPWx=T KeepS1=F KeepF1=F KeepIn=T MapXYZ=F SortEE=F KeepMc=T.
 Keep R1 ints in memory in symmetry-blocked form, NReq=2676045.
 FoFCou: FMM=F IPFlag=           0 FMFlag=           0 FMFlg1=           0
         NFxFlg=           0 DoJE=F BraDBF=F KetDBF=F FulRan=T
         wScrn=  0.000000 ICntrl=       600 IOpCl=  0 I1Cent=           0 NGrid=           0
         NMat0=    1 NMatS0=   1176 NMatT0=    0 NMatD0=    1 NMtDS0=    0 NMtDT0=    0
 Petite list used in FoFCou.
          MDV=     536870912 using IRadAn=       1.
          Solving linear equations simultaneously, MaxMat=       0.
          There are     9 degrees of freedom in the 1st order CPHF.  IDoFFX=6 NUNeed=     0.
      3 vectors produced by pass  0 Test12= 3.90D-15 1.11D-08 XBig12= 1.37D-02 7.09D-02.
 AX will form     3 AO Fock derivatives at one time.
      3 vectors produced by pass  1 Test12= 3.90D-15 1.11D-08 XBig12= 8.96D-04 1.66D-02.
      3 vectors produced by pass  2 Test12= 3.90D-15 1.11D-08 XBig12= 2.69D-05 1.60D-03.
      3 vectors produced by pass  3 Test12= 3.90D-15 1.11D-08 XBig12= 4.40D-07 3.35D-04.
      3 vectors produced by pass  4 Test12= 3.90D-15 1.11D-08 XBig12= 2.80D-08 7.69D-05.
      3 vectors produced by pass  5 Test12= 3.90D-15 1.11D-08 XBig12= 4.03D-10 1.03D-05.
      3 vectors produced by pass  6 Test12= 3.90D-15 1.11D-08 XBig12= 7.28D-12 9.50D-07.
      3 vectors produced by pass  7 Test12= 3.90D-15 1.11D-08 XBig12= 5.38D-14 8.64D-08.
 InvSVY:  IOpt=1 It=  1 EMax= 2.22D-16
 Solved reduced A of dimension    24 with     3 vectors.
 End of Minotr F.D. properties file   721 does not exist.
 End of Minotr F.D. properties file   722 does not exist.
 End of Minotr F.D. properties file   788 does not exist.
 Leave Link 1002 at Wed Sep 03 17:59:01 2025, MaxMem=   536870912 cpu:               0.0 elap:               0.1
 (Enter C:\G16W\l601.exe)
 Copying SCF densities to generalized density rwf, IOpCl= 0 IROHF=0.

 **********************************************************************

            Population analysis using the SCF Density.

 **********************************************************************

 Orbital symmetries:
       Occupied  (SG) (SG) (SG) (PI) (PI) (SG) (SG) (PI) (PI)
       Virtual   (SG) (SG) (PI) (PI) (SG) (PI) (PI) (DLTA) (DLTA)
                 (SG) (SG) (PI) (PI) (SG) (SG) (PI) (PI) (DLTA)
                 (DLTA) (DLTA) (DLTA) (PHI) (PHI) (SG) (PI) (PI)
                 (PI) (PI) (SG) (SG) (DLTA) (DLTA) (PI) (PI) (SG)
                 (PI) (PI) (SG) (SG)
 The electronic state is 1-SG.
 Alpha  occ. eigenvalues -- -104.84586 -10.57189  -8.03899  -8.03680  -8.03680
 Alpha  occ. eigenvalues --   -1.11555  -0.62368  -0.47541  -0.47541
 Alpha virt. eigenvalues --    0.12468   0.32883   0.49061   0.49061   0.49697
 Alpha virt. eigenvalues --    0.56584   0.56584   0.65832   0.65832   0.72483
 Alpha virt. eigenvalues --    0.94896   1.07671   1.07671   1.49720   2.15480
 Alpha virt. eigenvalues --    2.19474   2.19474   2.23659   2.23659   2.33864
 Alpha virt. eigenvalues --    2.33864   2.40797   2.40797   2.43224   2.54428
 Alpha virt. eigenvalues --    2.54428   2.60417   2.60417   2.73954   3.21564
 Alpha virt. eigenvalues --    3.58032   3.58032   3.95225   3.95225   4.31765
 Alpha virt. eigenvalues --    4.40770   4.40770   4.74814   6.27499
     Molecular Orbital Coefficients:
                           1         2         3         4         5
                           O         O         O         O         O
     Eigenvalues --  -104.84586 -10.57189  -8.03899  -8.03680  -8.03680
   1 1   Cl 1S          0.99953  -0.28119  -0.00120   0.00000   0.00000
   2        2S          0.00197   0.97852   0.00530   0.00000   0.00000
   3        3S          0.00018  -0.00744   0.00036   0.00000   0.00000
   4        4S         -0.00042   0.07967  -0.00132   0.00000   0.00000
   5        5S         -0.00002   0.00236   0.00134   0.00000   0.00000
   6        6PX         0.00000   0.00000   0.00000   0.97339   0.00000
   7        6PY         0.00000   0.00000   0.00000   0.00000   0.97339
   8        6PZ        -0.00006  -0.00360   0.97213   0.00000   0.00000
   9        7PX         0.00000   0.00000   0.00000  -0.00516   0.00000
  10        7PY         0.00000   0.00000   0.00000   0.00000  -0.00516
  11        7PZ        -0.00010   0.00086  -0.00755   0.00000   0.00000
  12        8PX         0.00000   0.00000   0.00000   0.05741   0.00000
  13        8PY         0.00000   0.00000   0.00000   0.00000   0.05741
  14        8PZ         0.00006  -0.00129   0.06043   0.00000   0.00000
  15        9PX         0.00000   0.00000   0.00000   0.00159   0.00000
  16        9PY         0.00000   0.00000   0.00000   0.00000   0.00159
  17        9PZ         0.00000  -0.00019   0.00139   0.00000   0.00000
  18       10D 0        0.00001   0.00064  -0.00091   0.00000   0.00000
  19       10D+1        0.00000   0.00000   0.00000  -0.00053   0.00000
  20       10D-1        0.00000   0.00000   0.00000   0.00000  -0.00053
  21       10D+2        0.00000   0.00000   0.00000   0.00000   0.00000
  22       10D-2        0.00000   0.00000   0.00000   0.00000   0.00000
  23       11D 0        0.00004  -0.00061   0.00127   0.00000   0.00000
  24       11D+1        0.00000   0.00000   0.00000   0.00030   0.00000
  25       11D-1        0.00000   0.00000   0.00000   0.00000   0.00030
  26       11D+2        0.00000   0.00000   0.00000   0.00000   0.00000
  27       11D-2        0.00000   0.00000   0.00000   0.00000   0.00000
  28       12F 0       -0.00001  -0.00004   0.00012   0.00000   0.00000
  29       12F+1        0.00000   0.00000   0.00000   0.00013   0.00000
  30       12F-1        0.00000   0.00000   0.00000   0.00000   0.00013
  31       12F+2        0.00000   0.00000   0.00000   0.00000   0.00000
  32       12F-2        0.00000   0.00000   0.00000   0.00000   0.00000
  33       12F+3        0.00000   0.00000   0.00000   0.00000   0.00000
  34       12F-3        0.00000   0.00000   0.00000   0.00000   0.00000
  35 2   H  1S          0.00000   0.00028  -0.00039   0.00000   0.00000
  36        2S         -0.00009   0.00080  -0.00247   0.00000   0.00000
  37        3S          0.00001  -0.00043   0.00021   0.00000   0.00000
  38        4PX         0.00000   0.00000   0.00000   0.00004   0.00000
  39        4PY         0.00000   0.00000   0.00000   0.00000   0.00004
  40        4PZ        -0.00001   0.00002   0.00025   0.00000   0.00000
  41        5PX         0.00000   0.00000   0.00000   0.00011   0.00000
  42        5PY         0.00000   0.00000   0.00000   0.00000   0.00011
  43        5PZ        -0.00005   0.00032  -0.00143   0.00000   0.00000
  44        6D 0       -0.00001  -0.00018   0.00040   0.00000   0.00000
  45        6D+1        0.00000   0.00000   0.00000  -0.00006   0.00000
  46        6D-1        0.00000   0.00000   0.00000   0.00000  -0.00006
  47        6D+2        0.00000   0.00000   0.00000   0.00000   0.00000
  48        6D-2        0.00000   0.00000   0.00000   0.00000   0.00000
                           6         7         8         9        10
                           O         O         O         O         V
     Eigenvalues --    -1.11555  -0.62368  -0.47541  -0.47541   0.12468
   1 1   Cl 1S          0.07984   0.02350   0.00000   0.00000  -0.01962
   2        2S         -0.29560  -0.09152   0.00000   0.00000   0.12195
   3        3S          0.57395   0.17624   0.00000   0.00000  -0.06971
   4        4S          0.06472   0.02860   0.00000   0.00000  -0.01586
   5        5S          0.34471   0.23342   0.00000   0.00000  -1.24969
   6        6PX         0.00000   0.00000  -0.25697   0.00000   0.00000
   7        6PY         0.00000   0.00000   0.00000  -0.25697   0.00000
   8        6PZ         0.03108  -0.21295   0.00000   0.00000  -0.10089
   9        7PX         0.00000   0.00000   0.54263   0.00000   0.00000
  10        7PY         0.00000   0.00000   0.00000   0.54263   0.00000
  11        7PZ        -0.04798   0.41081   0.00000   0.00000   0.29734
  12        8PX         0.00000   0.00000   0.25599   0.00000   0.00000
  13        8PY         0.00000   0.00000   0.00000   0.25599   0.00000
  14        8PZ        -0.02456   0.20367   0.00000   0.00000   0.09966
  15        9PX         0.00000   0.00000   0.35739   0.00000   0.00000
  16        9PY         0.00000   0.00000   0.00000   0.35739   0.00000
  17        9PZ        -0.00596   0.17764   0.00000   0.00000   0.93742
  18       10D 0        0.01542  -0.04107   0.00000   0.00000   0.03424
  19       10D+1        0.00000   0.00000  -0.00550   0.00000   0.00000
  20       10D-1        0.00000   0.00000   0.00000  -0.00550   0.00000
  21       10D+2        0.00000   0.00000   0.00000   0.00000   0.00000
  22       10D-2        0.00000   0.00000   0.00000   0.00000   0.00000
  23       11D 0        0.00952  -0.03685   0.00000   0.00000  -0.07678
  24       11D+1        0.00000   0.00000  -0.01116   0.00000   0.00000
  25       11D-1        0.00000   0.00000   0.00000  -0.01116   0.00000
  26       11D+2        0.00000   0.00000   0.00000   0.00000   0.00000
  27       11D-2        0.00000   0.00000   0.00000   0.00000   0.00000
  28       12F 0       -0.00648   0.01141   0.00000   0.00000   0.01860
  29       12F+1        0.00000   0.00000   0.00595   0.00000   0.00000
  30       12F-1        0.00000   0.00000   0.00000   0.00595   0.00000
  31       12F+2        0.00000   0.00000   0.00000   0.00000   0.00000
  32       12F-2        0.00000   0.00000   0.00000   0.00000   0.00000
  33       12F+3        0.00000   0.00000   0.00000   0.00000   0.00000
  34       12F-3        0.00000   0.00000   0.00000   0.00000   0.00000
  35 2   H  1S          0.08596  -0.15286   0.00000   0.00000   0.06895
  36        2S          0.10375  -0.27540   0.00000   0.00000   0.26953
  37        3S          0.01170  -0.07160   0.00000   0.00000   1.81892
  38        4PX         0.00000   0.00000   0.00582   0.00000   0.00000
  39        4PY         0.00000   0.00000   0.00000   0.00582   0.00000
  40        4PZ         0.01131  -0.01326   0.00000   0.00000  -0.01878
  41        5PX         0.00000   0.00000   0.02478   0.00000   0.00000
  42        5PY         0.00000   0.00000   0.00000   0.02478   0.00000
  43        5PZ         0.01649  -0.02544   0.00000   0.00000   0.16381
  44        6D 0        0.00317  -0.00468   0.00000   0.00000   0.01369
  45        6D+1        0.00000   0.00000   0.00338   0.00000   0.00000
  46        6D-1        0.00000   0.00000   0.00000   0.00338   0.00000
  47        6D+2        0.00000   0.00000   0.00000   0.00000   0.00000
  48        6D-2        0.00000   0.00000   0.00000   0.00000   0.00000
                          11        12        13        14        15
                           V         V         V         V         V
     Eigenvalues --     0.32883   0.49061   0.49061   0.49697   0.56584
   1 1   Cl 1S         -0.00396   0.00000   0.00000  -0.02315   0.00000
   2        2S          0.03847   0.00000   0.00000  -0.02887   0.00000
   3        3S          0.01262   0.00000   0.00000  -0.39122   0.00000
   4        4S          0.00328   0.00000   0.00000   0.04264   0.00000
   5        5S         -0.09436   0.00000   0.00000  -0.51973   0.00000
   6        6PX         0.00000   0.14027   0.00000   0.00000   0.00000
   7        6PY         0.00000   0.00000   0.14027   0.00000  -0.01797
   8        6PZ        -0.04236   0.00000   0.00000   0.16407   0.00000
   9        7PX         0.00000  -1.14334   0.00000   0.00000   0.00000
  10        7PY         0.00000   0.00000  -1.14334   0.00000   0.08615
  11        7PZ         0.01169   0.00000   0.00000  -0.80452   0.00000
  12        8PX         0.00000  -0.04327   0.00000   0.00000   0.00000
  13        8PY         0.00000   0.00000  -0.04327   0.00000   0.01416
  14        8PZ         0.05085   0.00000   0.00000  -0.11111   0.00000
  15        9PX         0.00000   1.39392   0.00000   0.00000   0.00000
  16        9PY         0.00000   0.00000   1.39392   0.00000   0.13402
  17        9PZ         0.67873   0.00000   0.00000   1.73107   0.00000
  18       10D 0        0.11963   0.00000   0.00000  -0.00577   0.00000
  19       10D+1        0.00000   0.01138   0.00000   0.00000   0.00000
  20       10D-1        0.00000   0.00000   0.01138   0.00000   0.15347
  21       10D+2        0.00000   0.00000   0.00000   0.00000   0.00000
  22       10D-2        0.00000   0.00000   0.00000   0.00000   0.00000
  23       11D 0        0.17226   0.00000   0.00000  -0.38221   0.00000
  24       11D+1        0.00000  -0.01337   0.00000   0.00000   0.00000
  25       11D-1        0.00000   0.00000  -0.01337   0.00000   0.60881
  26       11D+2        0.00000   0.00000   0.00000   0.00000   0.00000
  27       11D-2        0.00000   0.00000   0.00000   0.00000   0.00000
  28       12F 0        0.00741   0.00000   0.00000   0.04230   0.00000
  29       12F+1        0.00000   0.00026   0.00000   0.00000   0.00000
  30       12F-1        0.00000   0.00000   0.00026   0.00000   0.00522
  31       12F+2        0.00000   0.00000   0.00000   0.00000   0.00000
  32       12F-2        0.00000   0.00000   0.00000   0.00000   0.00000
  33       12F+3        0.00000   0.00000   0.00000   0.00000   0.00000
  34       12F-3        0.00000   0.00000   0.00000   0.00000   0.00000
  35 2   H  1S          0.11245   0.00000   0.00000  -0.07858   0.00000
  36        2S          1.19022   0.00000   0.00000   0.28628   0.00000
  37        3S         -0.88529   0.00000   0.00000   0.99872   0.00000
  38        4PX         0.00000   0.00512   0.00000   0.00000   0.00000
  39        4PY         0.00000   0.00000   0.00512   0.00000   0.03507
  40        4PZ         0.02326   0.00000   0.00000  -0.01901   0.00000
  41        5PX         0.00000  -0.04746   0.00000   0.00000   0.00000
  42        5PY         0.00000   0.00000  -0.04746   0.00000  -0.48044
  43        5PZ        -0.05232   0.00000   0.00000   0.45921   0.00000
  44        6D 0        0.00035   0.00000   0.00000   0.01588   0.00000
  45        6D+1        0.00000  -0.00183   0.00000   0.00000   0.00000
  46        6D-1        0.00000   0.00000  -0.00183   0.00000   0.00348
  47        6D+2        0.00000   0.00000   0.00000   0.00000   0.00000
  48        6D-2        0.00000   0.00000   0.00000   0.00000   0.00000
                          16        17        18        19        20
                           V         V         V         V         V
     Eigenvalues --     0.56584   0.65832   0.65832   0.72483   0.94896
   1 1   Cl 1S          0.00000   0.00000   0.00000  -0.08798   0.03616
   2        2S          0.00000   0.00000   0.00000  -0.15367   0.11629
   3        3S          0.00000   0.00000   0.00000  -1.65069   0.79097
   4        4S          0.00000   0.00000   0.00000  -0.19117   0.10729
   5        5S          0.00000   0.00000   0.00000   4.05501  -1.82486
   6        6PX        -0.01797   0.00000   0.00000   0.00000   0.00000
   7        6PY         0.00000   0.00000   0.00000   0.00000   0.00000
   8        6PZ         0.00000   0.00000   0.00000  -0.08963   0.00134
   9        7PX         0.08615   0.00000   0.00000   0.00000   0.00000
  10        7PY         0.00000   0.00000   0.00000   0.00000   0.00000
  11        7PZ         0.00000   0.00000   0.00000  -0.68678   0.19775
  12        8PX         0.01416   0.00000   0.00000   0.00000   0.00000
  13        8PY         0.00000   0.00000   0.00000   0.00000   0.00000
  14        8PZ         0.00000   0.00000   0.00000   0.20785  -0.03787
  15        9PX         0.13402   0.00000   0.00000   0.00000   0.00000
  16        9PY         0.00000   0.00000   0.00000   0.00000   0.00000
  17        9PZ         0.00000   0.00000   0.00000  -1.32624   1.08669
  18       10D 0        0.00000   0.00000   0.00000  -0.05315  -0.16799
  19       10D+1        0.15347   0.00000   0.00000   0.00000   0.00000
  20       10D-1        0.00000   0.00000   0.00000   0.00000   0.00000
  21       10D+2        0.00000   0.00000   0.16316   0.00000   0.00000
  22       10D-2        0.00000   0.16316   0.00000   0.00000   0.00000
  23       11D 0        0.00000   0.00000   0.00000   0.46099  -1.19071
  24       11D+1        0.60881   0.00000   0.00000   0.00000   0.00000
  25       11D-1        0.00000   0.00000   0.00000   0.00000   0.00000
  26       11D+2        0.00000   0.00000   0.89278   0.00000   0.00000
  27       11D-2        0.00000   0.89278   0.00000   0.00000   0.00000
  28       12F 0        0.00000   0.00000   0.00000  -0.14247   0.05584
  29       12F+1        0.00522   0.00000   0.00000   0.00000   0.00000
  30       12F-1        0.00000   0.00000   0.00000   0.00000   0.00000
  31       12F+2        0.00000   0.00000  -0.00777   0.00000   0.00000
  32       12F-2        0.00000  -0.00777   0.00000   0.00000   0.00000
  33       12F+3        0.00000   0.00000   0.00000   0.00000   0.00000
  34       12F-3        0.00000   0.00000   0.00000   0.00000   0.00000
  35 2   H  1S          0.00000   0.00000   0.00000   0.11243  -0.04989
  36        2S          0.00000   0.00000   0.00000  -1.06428   1.92971
  37        3S          0.00000   0.00000   0.00000  -1.90834   0.08401
  38        4PX         0.03507   0.00000   0.00000   0.00000   0.00000
  39        4PY         0.00000   0.00000   0.00000   0.00000   0.00000
  40        4PZ         0.00000   0.00000   0.00000  -0.00042   0.05437
  41        5PX        -0.48044   0.00000   0.00000   0.00000   0.00000
  42        5PY         0.00000   0.00000   0.00000   0.00000   0.00000
  43        5PZ         0.00000   0.00000   0.00000  -1.17233  -0.03299
  44        6D 0        0.00000   0.00000   0.00000  -0.10692   0.06091
  45        6D+1        0.00348   0.00000   0.00000   0.00000   0.00000
  46        6D-1        0.00000   0.00000   0.00000   0.00000   0.00000
  47        6D+2        0.00000   0.00000   0.00859   0.00000   0.00000
  48        6D-2        0.00000   0.00859   0.00000   0.00000   0.00000
                          21        22        23        24        25
                           V         V         V         V         V
     Eigenvalues --     1.07671   1.07671   1.49720   2.15480   2.19474
   1 1   Cl 1S          0.00000   0.00000  -0.03347  -0.00889   0.00000
   2        2S          0.00000   0.00000  -0.03565  -0.00225   0.00000
   3        3S          0.00000   0.00000  -0.57219  -0.17349   0.00000
   4        4S          0.00000   0.00000   0.18460  -0.02855   0.00000
   5        5S          0.00000   0.00000  -3.70362  -0.78890   0.00000
   6        6PX         0.01947   0.00000   0.00000   0.00000   0.00000
   7        6PY         0.00000   0.01947   0.00000   0.00000  -0.00572
   8        6PZ         0.00000   0.00000  -0.06669  -0.08649   0.00000
   9        7PX        -0.14086   0.00000   0.00000   0.00000   0.00000
  10        7PY         0.00000  -0.14086   0.00000   0.00000   0.07060
  11        7PZ         0.00000   0.00000   2.71882   0.34800   0.00000
  12        8PX        -0.01071   0.00000   0.00000   0.00000   0.00000
  13        8PY         0.00000  -0.01071   0.00000   0.00000  -0.00364
  14        8PZ         0.00000   0.00000  -0.04729   0.26986   0.00000
  15        9PX        -0.39829   0.00000   0.00000   0.00000   0.00000
  16        9PY         0.00000  -0.39829   0.00000   0.00000   0.01392
  17        9PZ         0.00000   0.00000   1.39837   0.40561   0.00000
  18       10D 0        0.00000   0.00000  -0.00319  -0.84691   0.00000
  19       10D+1        0.11542   0.00000   0.00000   0.00000   0.00000
  20       10D-1        0.00000   0.11542   0.00000   0.00000   1.09179
  21       10D+2        0.00000   0.00000   0.00000   0.00000   0.00000
  22       10D-2        0.00000   0.00000   0.00000   0.00000   0.00000
  23       11D 0        0.00000   0.00000  -2.02139   0.28276   0.00000
  24       11D+1        0.89703   0.00000   0.00000   0.00000   0.00000
  25       11D-1        0.00000   0.89703   0.00000   0.00000  -0.89524
  26       11D+2        0.00000   0.00000   0.00000   0.00000   0.00000
  27       11D-2        0.00000   0.00000   0.00000   0.00000   0.00000
  28       12F 0        0.00000   0.00000   0.11747   0.51042   0.00000
  29       12F+1        0.00183   0.00000   0.00000   0.00000   0.00000
  30       12F-1        0.00000   0.00183   0.00000   0.00000  -0.33937
  31       12F+2        0.00000   0.00000   0.00000   0.00000   0.00000
  32       12F-2        0.00000   0.00000   0.00000   0.00000   0.00000
  33       12F+3        0.00000   0.00000   0.00000   0.00000   0.00000
  34       12F-3        0.00000   0.00000   0.00000   0.00000   0.00000
  35 2   H  1S          0.00000   0.00000   0.15209  -0.56611   0.00000
  36        2S          0.00000   0.00000   3.84730   1.46402   0.00000
  37        3S          0.00000   0.00000   1.36155   0.06074   0.00000
  38        4PX        -0.10016   0.00000   0.00000   0.00000   0.00000
  39        4PY         0.00000  -0.10016   0.00000   0.00000  -0.11072
  40        4PZ         0.00000   0.00000  -0.10947  -0.19630   0.00000
  41        5PX         1.30657   0.00000   0.00000   0.00000   0.00000
  42        5PY         0.00000   1.30657   0.00000   0.00000  -0.09375
  43        5PZ         0.00000   0.00000   3.25698   0.92821   0.00000
  44        6D 0        0.00000   0.00000   0.15471  -0.02776   0.00000
  45        6D+1        0.01988   0.00000   0.00000   0.00000   0.00000
  46        6D-1        0.00000   0.01988   0.00000   0.00000  -0.15843
  47        6D+2        0.00000   0.00000   0.00000   0.00000   0.00000
  48        6D-2        0.00000   0.00000   0.00000   0.00000   0.00000
                          26        27        28        29        30
                           V         V         V         V         V
     Eigenvalues --     2.19474   2.23659   2.23659   2.33864   2.33864
   1 1   Cl 1S          0.00000   0.00000   0.00000   0.00000   0.00000
   2        2S          0.00000   0.00000   0.00000   0.00000   0.00000
   3        3S          0.00000   0.00000   0.00000   0.00000   0.00000
   4        4S          0.00000   0.00000   0.00000   0.00000   0.00000
   5        5S          0.00000   0.00000   0.00000   0.00000   0.00000
   6        6PX        -0.00572   0.00000   0.00000   0.00000   0.00000
   7        6PY         0.00000   0.00000   0.00000   0.00000   0.00000
   8        6PZ         0.00000   0.00000   0.00000   0.00000   0.00000
   9        7PX         0.07060   0.00000   0.00000   0.00000   0.00000
  10        7PY         0.00000   0.00000   0.00000   0.00000   0.00000
  11        7PZ         0.00000   0.00000   0.00000   0.00000   0.00000
  12        8PX        -0.00364   0.00000   0.00000   0.00000   0.00000
  13        8PY         0.00000   0.00000   0.00000   0.00000   0.00000
  14        8PZ         0.00000   0.00000   0.00000   0.00000   0.00000
  15        9PX         0.01392   0.00000   0.00000   0.00000   0.00000
  16        9PY         0.00000   0.00000   0.00000   0.00000   0.00000
  17        9PZ         0.00000   0.00000   0.00000   0.00000   0.00000
  18       10D 0        0.00000   0.00000   0.00000   0.00000   0.00000
  19       10D+1        1.09179   0.00000   0.00000   0.00000   0.00000
  20       10D-1        0.00000   0.00000   0.00000   0.00000   0.00000
  21       10D+2        0.00000   1.23468   0.00000  -0.03776   0.00000
  22       10D-2        0.00000   0.00000   1.23468   0.00000  -0.03776
  23       11D 0        0.00000   0.00000   0.00000   0.00000   0.00000
  24       11D+1       -0.89524   0.00000   0.00000   0.00000   0.00000
  25       11D-1        0.00000   0.00000   0.00000   0.00000   0.00000
  26       11D+2        0.00000  -0.86473   0.00000   0.06274   0.00000
  27       11D-2        0.00000   0.00000  -0.86473   0.00000   0.06274
  28       12F 0        0.00000   0.00000   0.00000   0.00000   0.00000
  29       12F+1       -0.33937   0.00000   0.00000   0.00000   0.00000
  30       12F-1        0.00000   0.00000   0.00000   0.00000   0.00000
  31       12F+2        0.00000   0.01612   0.00000   0.94179   0.00000
  32       12F-2        0.00000   0.00000   0.01612   0.00000   0.94179
  33       12F+3        0.00000   0.00000   0.00000   0.00000   0.00000
  34       12F-3        0.00000   0.00000   0.00000   0.00000   0.00000
  35 2   H  1S          0.00000   0.00000   0.00000   0.00000   0.00000
  36        2S          0.00000   0.00000   0.00000   0.00000   0.00000
  37        3S          0.00000   0.00000   0.00000   0.00000   0.00000
  38        4PX        -0.11072   0.00000   0.00000   0.00000   0.00000
  39        4PY         0.00000   0.00000   0.00000   0.00000   0.00000
  40        4PZ         0.00000   0.00000   0.00000   0.00000   0.00000
  41        5PX        -0.09375   0.00000   0.00000   0.00000   0.00000
  42        5PY         0.00000   0.00000   0.00000   0.00000   0.00000
  43        5PZ         0.00000   0.00000   0.00000   0.00000   0.00000
  44        6D 0        0.00000   0.00000   0.00000   0.00000   0.00000
  45        6D+1       -0.15843   0.00000   0.00000   0.00000   0.00000
  46        6D-1        0.00000   0.00000   0.00000   0.00000   0.00000
  47        6D+2        0.00000  -0.02197   0.00000  -0.20013   0.00000
  48        6D-2        0.00000   0.00000  -0.02197   0.00000  -0.20013
                          31        32        33        34        35
                           V         V         V         V         V
     Eigenvalues --     2.40797   2.40797   2.43224   2.54428   2.54428
   1 1   Cl 1S          0.00000   0.00000  -0.00667   0.00000   0.00000
   2        2S          0.00000   0.00000  -0.03204   0.00000   0.00000
   3        3S          0.00000   0.00000  -0.13171   0.00000   0.00000
   4        4S          0.00000   0.00000   0.17117   0.00000   0.00000
   5        5S          0.00000   0.00000  -1.97932   0.00000   0.00000
   6        6PX         0.00000   0.00000   0.00000   0.55943   0.00000
   7        6PY         0.00000   0.00000   0.00000   0.00000   0.55943
   8        6PZ         0.00000   0.00000  -0.17744   0.00000   0.00000
   9        7PX         0.00000   0.00000   0.00000   1.72252   0.00000
  10        7PY         0.00000   0.00000   0.00000   0.00000   1.72252
  11        7PZ         0.00000   0.00000   0.62970   0.00000   0.00000
  12        8PX         0.00000   0.00000   0.00000  -1.68875   0.00000
  13        8PY         0.00000   0.00000   0.00000   0.00000  -1.68875
  14        8PZ         0.00000   0.00000   0.46676   0.00000   0.00000
  15        9PX         0.00000   0.00000   0.00000  -0.70306   0.00000
  16        9PY         0.00000   0.00000   0.00000   0.00000  -0.70306
  17        9PZ         0.00000   0.00000   1.27059   0.00000   0.00000
  18       10D 0        0.00000   0.00000   0.86829   0.00000   0.00000
  19       10D+1        0.00000   0.00000   0.00000  -0.26923   0.00000
  20       10D-1        0.00000   0.00000   0.00000   0.00000  -0.26923
  21       10D+2        0.00000   0.00000   0.00000   0.00000   0.00000
  22       10D-2        0.00000   0.00000   0.00000   0.00000   0.00000
  23       11D 0        0.00000   0.00000  -1.68603   0.00000   0.00000
  24       11D+1        0.00000   0.00000   0.00000   0.28656   0.00000
  25       11D-1        0.00000   0.00000   0.00000   0.00000   0.28656
  26       11D+2        0.00000   0.00000   0.00000   0.00000   0.00000
  27       11D-2        0.00000   0.00000   0.00000   0.00000   0.00000
  28       12F 0        0.00000   0.00000   0.59987   0.00000   0.00000
  29       12F+1        0.00000   0.00000   0.00000  -0.44320   0.00000
  30       12F-1        0.00000   0.00000   0.00000   0.00000  -0.44320
  31       12F+2        0.00000   0.00000   0.00000   0.00000   0.00000
  32       12F-2        0.00000   0.00000   0.00000   0.00000   0.00000
  33       12F+3        1.00000   0.00000   0.00000   0.00000   0.00000
  34       12F-3        0.00000   1.00000   0.00000   0.00000   0.00000
  35 2   H  1S          0.00000   0.00000  -0.76866   0.00000   0.00000
  36        2S          0.00000   0.00000   3.28465   0.00000   0.00000
  37        3S          0.00000   0.00000   0.19357   0.00000   0.00000
  38        4PX         0.00000   0.00000   0.00000  -0.03015   0.00000
  39        4PY         0.00000   0.00000   0.00000   0.00000  -0.03015
  40        4PZ         0.00000   0.00000   0.13002   0.00000   0.00000
  41        5PX         0.00000   0.00000   0.00000   0.21509   0.00000
  42        5PY         0.00000   0.00000   0.00000   0.00000   0.21509
  43        5PZ         0.00000   0.00000   1.10324   0.00000   0.00000
  44        6D 0        0.00000   0.00000   0.09304   0.00000   0.00000
  45        6D+1        0.00000   0.00000   0.00000  -0.03570   0.00000
  46        6D-1        0.00000   0.00000   0.00000   0.00000  -0.03570
  47        6D+2        0.00000   0.00000   0.00000   0.00000   0.00000
  48        6D-2        0.00000   0.00000   0.00000   0.00000   0.00000
                          36        37        38        39        40
                           V         V         V         V         V
     Eigenvalues --     2.60417   2.60417   2.73954   3.21564   3.58032
   1 1   Cl 1S          0.00000   0.00000  -0.02646  -0.01833   0.00000
   2        2S          0.00000   0.00000   0.12445   0.32044   0.00000
   3        3S          0.00000   0.00000  -0.30837   0.08866   0.00000
   4        4S          0.00000   0.00000  -0.15771  -0.31982   0.00000
   5        5S          0.00000   0.00000  -2.04710  -3.05285   0.00000
   6        6PX         0.30597   0.00000   0.00000   0.00000   0.00000
   7        6PY         0.00000   0.30597   0.00000   0.00000   0.00000
   8        6PZ         0.00000   0.00000   0.52028   0.41659   0.00000
   9        7PX         0.97772   0.00000   0.00000   0.00000   0.00000
  10        7PY         0.00000   0.97772   0.00000   0.00000   0.00000
  11        7PZ         0.00000   0.00000   3.42351   3.41136   0.00000
  12        8PX        -0.92891   0.00000   0.00000   0.00000   0.00000
  13        8PY         0.00000  -0.92891   0.00000   0.00000   0.00000
  14        8PZ         0.00000   0.00000  -1.66490  -1.40903   0.00000
  15        9PX        -0.14471   0.00000   0.00000   0.00000   0.00000
  16        9PY         0.00000  -0.14471   0.00000   0.00000   0.00000
  17        9PZ         0.00000   0.00000   0.25468   0.69965   0.00000
  18       10D 0        0.00000   0.00000  -0.00400   0.20381   0.00000
  19       10D+1        0.55331   0.00000   0.00000   0.00000   0.00000
  20       10D-1        0.00000   0.55331   0.00000   0.00000   0.00000
  21       10D+2        0.00000   0.00000   0.00000   0.00000   0.06874
  22       10D-2        0.00000   0.00000   0.00000   0.00000   0.00000
  23       11D 0        0.00000   0.00000  -1.21602  -1.83224   0.00000
  24       11D+1       -0.66201   0.00000   0.00000   0.00000   0.00000
  25       11D-1        0.00000  -0.66201   0.00000   0.00000   0.00000
  26       11D+2        0.00000   0.00000   0.00000   0.00000  -0.18198
  27       11D-2        0.00000   0.00000   0.00000   0.00000   0.00000
  28       12F 0        0.00000   0.00000  -0.01920   1.05517   0.00000
  29       12F+1        0.79830   0.00000   0.00000   0.00000   0.00000
  30       12F-1        0.00000   0.79830   0.00000   0.00000   0.00000
  31       12F+2        0.00000   0.00000   0.00000   0.00000   0.39051
  32       12F-2        0.00000   0.00000   0.00000   0.00000   0.00000
  33       12F+3        0.00000   0.00000   0.00000   0.00000   0.00000
  34       12F-3        0.00000   0.00000   0.00000   0.00000   0.00000
  35 2   H  1S          0.00000   0.00000  -1.08082   0.64169   0.00000
  36        2S          0.00000   0.00000   4.00532   2.98229   0.00000
  37        3S          0.00000   0.00000  -0.07685   0.87789   0.00000
  38        4PX         0.14880   0.00000   0.00000   0.00000   0.00000
  39        4PY         0.00000   0.14880   0.00000   0.00000   0.00000
  40        4PZ         0.00000   0.00000   0.12805  -0.16786   0.00000
  41        5PX        -0.64029   0.00000   0.00000   0.00000   0.00000
  42        5PY         0.00000  -0.64029   0.00000   0.00000   0.00000
  43        5PZ         0.00000   0.00000   1.81638   2.27077   0.00000
  44        6D 0        0.00000   0.00000   0.11331   0.47546   0.00000
  45        6D+1        0.08428   0.00000   0.00000   0.00000   0.00000
  46        6D-1        0.00000   0.08428   0.00000   0.00000   0.00000
  47        6D+2        0.00000   0.00000   0.00000   0.00000   1.00945
  48        6D-2        0.00000   0.00000   0.00000   0.00000   0.00000
                          41        42        43        44        45
                           V         V         V         V         V
     Eigenvalues --     3.58032   3.95225   3.95225   4.31765   4.40770
   1 1   Cl 1S          0.00000   0.00000   0.00000  -0.00061   0.00000
   2        2S          0.00000   0.00000   0.00000  -1.40115   0.00000
   3        3S          0.00000   0.00000   0.00000  -1.76344   0.00000
   4        4S          0.00000   0.00000   0.00000   1.85012   0.00000
   5        5S          0.00000   0.00000   0.00000   0.64389   0.00000
   6        6PX         0.00000  -0.02852   0.00000   0.00000  -0.05049
   7        6PY         0.00000   0.00000  -0.02852   0.00000   0.00000
   8        6PZ         0.00000   0.00000   0.00000   0.06561   0.00000
   9        7PX         0.00000  -0.07299   0.00000   0.00000  -0.65679
  10        7PY         0.00000   0.00000  -0.07299   0.00000   0.00000
  11        7PZ         0.00000   0.00000   0.00000  -0.02939   0.00000
  12        8PX         0.00000   0.10432   0.00000   0.00000   0.25575
  13        8PY         0.00000   0.00000   0.10432   0.00000   0.00000
  14        8PZ         0.00000   0.00000   0.00000  -0.05217   0.00000
  15        9PX         0.00000   0.19866   0.00000   0.00000  -0.02568
  16        9PY         0.00000   0.00000   0.19866   0.00000   0.00000
  17        9PZ         0.00000   0.00000   0.00000  -0.03120   0.00000
  18       10D 0        0.00000   0.00000   0.00000   0.24178   0.00000
  19       10D+1        0.00000   0.06258   0.00000   0.00000   0.12573
  20       10D-1        0.00000   0.00000   0.06258   0.00000   0.00000
  21       10D+2        0.00000   0.00000   0.00000   0.00000   0.00000
  22       10D-2        0.06874   0.00000   0.00000   0.00000   0.00000
  23       11D 0        0.00000   0.00000   0.00000   0.13924   0.00000
  24       11D+1        0.00000  -0.15976   0.00000   0.00000   0.63671
  25       11D-1        0.00000   0.00000  -0.15976   0.00000   0.00000
  26       11D+2        0.00000   0.00000   0.00000   0.00000   0.00000
  27       11D-2       -0.18198   0.00000   0.00000   0.00000   0.00000
  28       12F 0        0.00000   0.00000   0.00000  -0.45615   0.00000
  29       12F+1        0.00000  -0.17780   0.00000   0.00000  -0.78841
  30       12F-1        0.00000   0.00000  -0.17780   0.00000   0.00000
  31       12F+2        0.00000   0.00000   0.00000   0.00000   0.00000
  32       12F-2        0.39051   0.00000   0.00000   0.00000   0.00000
  33       12F+3        0.00000   0.00000   0.00000   0.00000   0.00000
  34       12F-3        0.00000   0.00000   0.00000   0.00000   0.00000
  35 2   H  1S          0.00000   0.00000   0.00000  -0.29005   0.00000
  36        2S          0.00000   0.00000   0.00000   0.02477   0.00000
  37        3S          0.00000   0.00000   0.00000   0.06432   0.00000
  38        4PX         0.00000   1.29036   0.00000   0.00000   0.00180
  39        4PY         0.00000   0.00000   1.29036   0.00000   0.00000
  40        4PZ         0.00000   0.00000   0.00000  -1.17955   0.00000
  41        5PX         0.00000  -0.82669   0.00000   0.00000   0.75469
  42        5PY         0.00000   0.00000  -0.82669   0.00000   0.00000
  43        5PZ         0.00000   0.00000   0.00000   0.76300   0.00000
  44        6D 0        0.00000   0.00000   0.00000  -0.11728   0.00000
  45        6D+1        0.00000  -0.08266   0.00000   0.00000   1.28307
  46        6D-1        0.00000   0.00000  -0.08266   0.00000   0.00000
  47        6D+2        0.00000   0.00000   0.00000   0.00000   0.00000
  48        6D-2        1.00945   0.00000   0.00000   0.00000   0.00000
                          46        47        48
                           V         V         V
     Eigenvalues --     4.40770   4.74814   6.27499
   1 1   Cl 1S          0.00000  -0.02299  -0.08557
   2        2S          0.00000   0.83076  -2.66859
   3        3S          0.00000   0.48221  -4.72721
   4        4S          0.00000  -1.34267   3.74778
   5        5S          0.00000  -1.46111  -1.55486
   6        6PX         0.00000   0.00000   0.00000
   7        6PY        -0.05049   0.00000   0.00000
   8        6PZ         0.00000  -0.15651   0.17412
   9        7PX         0.00000   0.00000   0.00000
  10        7PY        -0.65679   0.00000   0.00000
  11        7PZ         0.00000   0.63581   4.43673
  12        8PX         0.00000   0.00000   0.00000
  13        8PY         0.25575   0.00000   0.00000
  14        8PZ         0.00000   0.60988  -0.77454
  15        9PX         0.00000   0.00000   0.00000
  16        9PY        -0.02568   0.00000   0.00000
  17        9PZ         0.00000   0.44469   0.62316
  18       10D 0        0.00000  -0.44376  -0.53642
  19       10D+1        0.00000   0.00000   0.00000
  20       10D-1        0.12573   0.00000   0.00000
  21       10D+2        0.00000   0.00000   0.00000
  22       10D-2        0.00000   0.00000   0.00000
  23       11D 0        0.00000  -0.14821  -2.08825
  24       11D+1        0.00000   0.00000   0.00000
  25       11D-1        0.63671   0.00000   0.00000
  26       11D+2        0.00000   0.00000   0.00000
  27       11D-2        0.00000   0.00000   0.00000
  28       12F 0        0.00000  -0.14323   0.97659
  29       12F+1        0.00000   0.00000   0.00000
  30       12F-1       -0.78841   0.00000   0.00000
  31       12F+2        0.00000   0.00000   0.00000
  32       12F-2        0.00000   0.00000   0.00000
  33       12F+3        0.00000   0.00000   0.00000
  34       12F-3        0.00000   0.00000   0.00000
  35 2   H  1S          0.00000  -0.60359  -0.26855
  36        2S          0.00000   1.62242   5.53984
  37        3S          0.00000   0.49661   0.03971
  38        4PX         0.00000   0.00000   0.00000
  39        4PY         0.00180   0.00000   0.00000
  40        4PZ         0.00000  -0.54540   0.78237
  41        5PX         0.00000   0.00000   0.00000
  42        5PY         0.75469   0.00000   0.00000
  43        5PZ         0.00000   1.58584   3.19462
  44        6D 0        0.00000   1.12211   1.29051
  45        6D+1        0.00000   0.00000   0.00000
  46        6D-1        1.28307   0.00000   0.00000
  47        6D+2        0.00000   0.00000   0.00000
  48        6D-2        0.00000   0.00000   0.00000
     Density Matrix:
                           1         2         3         4         5
   1 1   Cl 1S          2.17011
   2        2S         -0.59787   2.10660
   3        3S          0.10449  -0.38615   0.72107
   4        4S         -0.03397   0.11240   0.08319   0.02271
   5        5S          0.06464  -0.24189   0.47793   0.05834   0.34663
   6        6PX         0.00000   0.00000   0.00000   0.00000   0.00000
   7        6PY         0.00000   0.00000   0.00000   0.00000   0.00000
   8        6PZ        -0.00549   0.02386  -0.03864  -0.01129  -0.07540
   9        7PX         0.00000   0.00000   0.00000   0.00000   0.00000
  10        7PY         0.00000   0.00000   0.00000   0.00000   0.00000
  11        7PZ         0.01098  -0.04523   0.08971   0.01744   0.15869
  12        8PX         0.00000   0.00000   0.00000   0.00000   0.00000
  13        8PY         0.00000   0.00000   0.00000   0.00000   0.00000
  14        8PZ         0.00634  -0.02464   0.04366   0.00811   0.07831
  15        9PX         0.00000   0.00000   0.00000   0.00000   0.00000
  16        9PY         0.00000   0.00000   0.00000   0.00000   0.00000
  17        9PZ         0.00750  -0.02934   0.05577   0.00935   0.07882
  18       10D 0        0.00019  -0.00036   0.00321  -0.00025  -0.00854
  19       10D+1        0.00000   0.00000   0.00000   0.00000   0.00000
  20       10D-1        0.00000   0.00000   0.00000   0.00000   0.00000
  21       10D+2        0.00000   0.00000   0.00000   0.00000   0.00000
  22       10D-2        0.00000   0.00000   0.00000   0.00000   0.00000
  23       11D 0        0.00021  -0.00007  -0.00205  -0.00098  -0.01064
  24       11D+1        0.00000   0.00000   0.00000   0.00000   0.00000
  25       11D-1        0.00000   0.00000   0.00000   0.00000   0.00000
  26       11D+2        0.00000   0.00000   0.00000   0.00000   0.00000
  27       11D-2        0.00000   0.00000   0.00000   0.00000   0.00000
  28       12F 0       -0.00050   0.00167  -0.00342  -0.00019   0.00086
  29       12F+1        0.00000   0.00000   0.00000   0.00000   0.00000
  30       12F-1        0.00000   0.00000   0.00000   0.00000   0.00000
  31       12F+2        0.00000   0.00000   0.00000   0.00000   0.00000
  32       12F-2        0.00000   0.00000   0.00000   0.00000   0.00000
  33       12F+3        0.00000   0.00000   0.00000   0.00000   0.00000
  34       12F-3        0.00000   0.00000   0.00000   0.00000   0.00000
  35 2   H  1S          0.00638  -0.02230   0.04479   0.00243  -0.01210
  36        2S          0.00300  -0.00938   0.02200  -0.00219  -0.05705
  37        3S         -0.00123   0.00534  -0.01180  -0.00265  -0.02536
  38        4PX         0.00000   0.00000   0.00000   0.00000   0.00000
  39        4PY         0.00000   0.00000   0.00000   0.00000   0.00000
  40        4PZ         0.00115  -0.00421   0.00831   0.00071   0.00161
  41        5PX         0.00000   0.00000   0.00000   0.00000   0.00000
  42        5PY         0.00000   0.00000   0.00000   0.00000   0.00000
  43        5PZ         0.00116  -0.00448   0.00995   0.00073  -0.00051
  44        6D 0        0.00038  -0.00137   0.00199   0.00011   0.00000
  45        6D+1        0.00000   0.00000   0.00000   0.00000   0.00000
  46        6D-1        0.00000   0.00000   0.00000   0.00000   0.00000
  47        6D+2        0.00000   0.00000   0.00000   0.00000   0.00000
  48        6D-2        0.00000   0.00000   0.00000   0.00000   0.00000
                           6         7         8         9        10
   6        6PX         2.02703
   7        6PY         0.00000   2.02703
   8        6PZ         0.00000   0.00000   1.98273
   9        7PX        -0.28892   0.00000   0.00000   0.58894
  10        7PY         0.00000  -0.28892   0.00000   0.00000   0.58894
  11        7PZ         0.00000   0.00000  -0.19263   0.00000   0.00000
  12        8PX        -0.01979   0.00000   0.00000   0.27722   0.00000
  13        8PY         0.00000  -0.01979   0.00000   0.00000   0.27722
  14        8PZ         0.00000   0.00000   0.02922   0.00000   0.00000
  15        9PX        -0.18058   0.00000   0.00000   0.38784   0.00000
  16        9PY         0.00000  -0.18058   0.00000   0.00000   0.38784
  17        9PZ         0.00000   0.00000  -0.07331   0.00000   0.00000
  18       10D 0        0.00000   0.00000   0.01668   0.00000   0.00000
  19       10D+1        0.00180   0.00000   0.00000  -0.00596   0.00000
  20       10D-1        0.00000   0.00180   0.00000   0.00000  -0.00596
  21       10D+2        0.00000   0.00000   0.00000   0.00000   0.00000
  22       10D-2        0.00000   0.00000   0.00000   0.00000   0.00000
  23       11D 0        0.00000   0.00000   0.01875   0.00000   0.00000
  24       11D+1        0.00632   0.00000   0.00000  -0.01211   0.00000
  25       11D-1        0.00000   0.00632   0.00000   0.00000  -0.01211
  26       11D+2        0.00000   0.00000   0.00000   0.00000   0.00000
  27       11D-2        0.00000   0.00000   0.00000   0.00000   0.00000
  28       12F 0        0.00000   0.00000  -0.00502   0.00000   0.00000
  29       12F+1       -0.00280   0.00000   0.00000   0.00646   0.00000
  30       12F-1        0.00000  -0.00280   0.00000   0.00000   0.00646
  31       12F+2        0.00000   0.00000   0.00000   0.00000   0.00000
  32       12F-2        0.00000   0.00000   0.00000   0.00000   0.00000
  33       12F+3        0.00000   0.00000   0.00000   0.00000   0.00000
  34       12F-3        0.00000   0.00000   0.00000   0.00000   0.00000
  35 2   H  1S          0.00000   0.00000   0.06968   0.00000   0.00000
  36        2S          0.00000   0.00000   0.11893   0.00000   0.00000
  37        3S          0.00000   0.00000   0.03164   0.00000   0.00000
  38        4PX        -0.00292   0.00000   0.00000   0.00631   0.00000
  39        4PY         0.00000  -0.00292   0.00000   0.00000   0.00631
  40        4PZ         0.00000   0.00000   0.00683   0.00000   0.00000
  41        5PX        -0.01251   0.00000   0.00000   0.02689   0.00000
  42        5PY         0.00000  -0.01251   0.00000   0.00000   0.02689
  43        5PZ         0.00000   0.00000   0.00907   0.00000   0.00000
  44        6D 0        0.00000   0.00000   0.00298   0.00000   0.00000
  45        6D+1       -0.00186   0.00000   0.00000   0.00367   0.00000
  46        6D-1        0.00000  -0.00186   0.00000   0.00000   0.00367
  47        6D+2        0.00000   0.00000   0.00000   0.00000   0.00000
  48        6D-2        0.00000   0.00000   0.00000   0.00000   0.00000
                          11        12        13        14        15
  11        7PZ         0.34225
  12        8PX         0.00000   0.13765
  13        8PY         0.00000   0.00000   0.13765
  14        8PZ         0.16879   0.00000   0.00000   0.09148
  15        9PX         0.00000   0.18316   0.00000   0.00000   0.25545
  16        9PY         0.00000   0.00000   0.18316   0.00000   0.00000
  17        9PZ         0.14650   0.00000   0.00000   0.07282   0.00000
  18       10D 0       -0.03521   0.00000   0.00000  -0.01760   0.00000
  19       10D+1        0.00000  -0.00287   0.00000   0.00000  -0.00393
  20       10D-1        0.00000   0.00000  -0.00287   0.00000   0.00000
  21       10D+2        0.00000   0.00000   0.00000   0.00000   0.00000
  22       10D-2        0.00000   0.00000   0.00000   0.00000   0.00000
  23       11D 0       -0.03121   0.00000   0.00000  -0.01532   0.00000
  24       11D+1        0.00000  -0.00568   0.00000   0.00000  -0.00797
  25       11D-1        0.00000   0.00000  -0.00568   0.00000   0.00000
  26       11D+2        0.00000   0.00000   0.00000   0.00000   0.00000
  27       11D-2        0.00000   0.00000   0.00000   0.00000   0.00000
  28       12F 0        0.01000   0.00000   0.00000   0.00498   0.00000
  29       12F+1        0.00000   0.00306   0.00000   0.00000   0.00426
  30       12F-1        0.00000   0.00000   0.00306   0.00000   0.00000
  31       12F+2        0.00000   0.00000   0.00000   0.00000   0.00000
  32       12F-2        0.00000   0.00000   0.00000   0.00000   0.00000
  33       12F+3        0.00000   0.00000   0.00000   0.00000   0.00000
  34       12F-3        0.00000   0.00000   0.00000   0.00000   0.00000
  35 2   H  1S         -0.13383   0.00000   0.00000  -0.06654   0.00000
  36        2S         -0.23619   0.00000   0.00000  -0.11758   0.00000
  37        3S         -0.05996   0.00000   0.00000  -0.02972   0.00000
  38        4PX         0.00000   0.00298   0.00000   0.00000   0.00416
  39        4PY         0.00000   0.00000   0.00298   0.00000   0.00000
  40        4PZ        -0.01198   0.00000   0.00000  -0.00593   0.00000
  41        5PX         0.00000   0.01270   0.00000   0.00000   0.01771
  42        5PY         0.00000   0.00000   0.01270   0.00000   0.00000
  43        5PZ        -0.02247   0.00000   0.00000  -0.01135   0.00000
  44        6D 0       -0.00415   0.00000   0.00000  -0.00201   0.00000
  45        6D+1        0.00000   0.00172   0.00000   0.00000   0.00242
  46        6D-1        0.00000   0.00000   0.00172   0.00000   0.00000
  47        6D+2        0.00000   0.00000   0.00000   0.00000   0.00000
  48        6D-2        0.00000   0.00000   0.00000   0.00000   0.00000
                          16        17        18        19        20
  16        9PY         0.25545
  17        9PZ         0.00000   0.06318
  18       10D 0        0.00000  -0.01478   0.00385
  19       10D+1        0.00000   0.00000   0.00000   0.00006
  20       10D-1       -0.00393   0.00000   0.00000   0.00000   0.00006
  21       10D+2        0.00000   0.00000   0.00000   0.00000   0.00000
  22       10D-2        0.00000   0.00000   0.00000   0.00000   0.00000
  23       11D 0        0.00000  -0.01320   0.00332   0.00000   0.00000
  24       11D+1        0.00000   0.00000   0.00000   0.00012   0.00000
  25       11D-1       -0.00797   0.00000   0.00000   0.00000   0.00012
  26       11D+2        0.00000   0.00000   0.00000   0.00000   0.00000
  27       11D-2        0.00000   0.00000   0.00000   0.00000   0.00000
  28       12F 0        0.00000   0.00413  -0.00114   0.00000   0.00000
  29       12F+1        0.00000   0.00000   0.00000  -0.00007   0.00000
  30       12F-1        0.00426   0.00000   0.00000   0.00000  -0.00007
  31       12F+2        0.00000   0.00000   0.00000   0.00000   0.00000
  32       12F-2        0.00000   0.00000   0.00000   0.00000   0.00000
  33       12F+3        0.00000   0.00000   0.00000   0.00000   0.00000
  34       12F-3        0.00000   0.00000   0.00000   0.00000   0.00000
  35 2   H  1S          0.00000  -0.05533   0.01521   0.00000   0.00000
  36        2S          0.00000  -0.09909   0.02583   0.00000   0.00000
  37        3S          0.00000  -0.02558   0.00624   0.00000   0.00000
  38        4PX         0.00000   0.00000   0.00000  -0.00006   0.00000
  39        4PY         0.00416   0.00000   0.00000   0.00000  -0.00006
  40        4PZ         0.00000  -0.00485   0.00144   0.00000   0.00000
  41        5PX         0.00000   0.00000   0.00000  -0.00027   0.00000
  42        5PY         0.01771   0.00000   0.00000   0.00000  -0.00027
  43        5PZ         0.00000  -0.00924   0.00260   0.00000   0.00000
  44        6D 0        0.00000  -0.00170   0.00048   0.00000   0.00000
  45        6D+1        0.00000   0.00000   0.00000  -0.00004   0.00000
  46        6D-1        0.00242   0.00000   0.00000   0.00000  -0.00004
  47        6D+2        0.00000   0.00000   0.00000   0.00000   0.00000
  48        6D-2        0.00000   0.00000   0.00000   0.00000   0.00000
                          21        22        23        24        25
  21       10D+2        0.00000
  22       10D-2        0.00000   0.00000
  23       11D 0        0.00000   0.00000   0.00290
  24       11D+1        0.00000   0.00000   0.00000   0.00025
  25       11D-1        0.00000   0.00000   0.00000   0.00000   0.00025
  26       11D+2        0.00000   0.00000   0.00000   0.00000   0.00000
  27       11D-2        0.00000   0.00000   0.00000   0.00000   0.00000
  28       12F 0        0.00000   0.00000  -0.00096   0.00000   0.00000
  29       12F+1        0.00000   0.00000   0.00000  -0.00013   0.00000
  30       12F-1        0.00000   0.00000   0.00000   0.00000  -0.00013
  31       12F+2        0.00000   0.00000   0.00000   0.00000   0.00000
  32       12F-2        0.00000   0.00000   0.00000   0.00000   0.00000
  33       12F+3        0.00000   0.00000   0.00000   0.00000   0.00000
  34       12F-3        0.00000   0.00000   0.00000   0.00000   0.00000
  35 2   H  1S          0.00000   0.00000   0.01290   0.00000   0.00000
  36        2S          0.00000   0.00000   0.02226   0.00000   0.00000
  37        3S          0.00000   0.00000   0.00550   0.00000   0.00000
  38        4PX         0.00000   0.00000   0.00000  -0.00013   0.00000
  39        4PY         0.00000   0.00000   0.00000   0.00000  -0.00013
  40        4PZ         0.00000   0.00000   0.00119   0.00000   0.00000
  41        5PX         0.00000   0.00000   0.00000  -0.00055   0.00000
  42        5PY         0.00000   0.00000   0.00000   0.00000  -0.00055
  43        5PZ         0.00000   0.00000   0.00219   0.00000   0.00000
  44        6D 0        0.00000   0.00000   0.00041   0.00000   0.00000
  45        6D+1        0.00000   0.00000   0.00000  -0.00008   0.00000
  46        6D-1        0.00000   0.00000   0.00000   0.00000  -0.00008
  47        6D+2        0.00000   0.00000   0.00000   0.00000   0.00000
  48        6D-2        0.00000   0.00000   0.00000   0.00000   0.00000
                          26        27        28        29        30
  26       11D+2        0.00000
  27       11D-2        0.00000   0.00000
  28       12F 0        0.00000   0.00000   0.00034
  29       12F+1        0.00000   0.00000   0.00000   0.00007
  30       12F-1        0.00000   0.00000   0.00000   0.00000   0.00007
  31       12F+2        0.00000   0.00000   0.00000   0.00000   0.00000
  32       12F-2        0.00000   0.00000   0.00000   0.00000   0.00000
  33       12F+3        0.00000   0.00000   0.00000   0.00000   0.00000
  34       12F-3        0.00000   0.00000   0.00000   0.00000   0.00000
  35 2   H  1S          0.00000   0.00000  -0.00460   0.00000   0.00000
  36        2S          0.00000   0.00000  -0.00763   0.00000   0.00000
  37        3S          0.00000   0.00000  -0.00179   0.00000   0.00000
  38        4PX         0.00000   0.00000   0.00000   0.00007   0.00000
  39        4PY         0.00000   0.00000   0.00000   0.00000   0.00007
  40        4PZ         0.00000   0.00000  -0.00045   0.00000   0.00000
  41        5PX         0.00000   0.00000   0.00000   0.00030   0.00000
  42        5PY         0.00000   0.00000   0.00000   0.00000   0.00030
  43        5PZ         0.00000   0.00000  -0.00079   0.00000   0.00000
  44        6D 0        0.00000   0.00000  -0.00015   0.00000   0.00000
  45        6D+1        0.00000   0.00000   0.00000   0.00004   0.00000
  46        6D-1        0.00000   0.00000   0.00000   0.00000   0.00004
  47        6D+2        0.00000   0.00000   0.00000   0.00000   0.00000
  48        6D-2        0.00000   0.00000   0.00000   0.00000   0.00000
                          31        32        33        34        35
  31       12F+2        0.00000
  32       12F-2        0.00000   0.00000
  33       12F+3        0.00000   0.00000   0.00000
  34       12F-3        0.00000   0.00000   0.00000   0.00000
  35 2   H  1S          0.00000   0.00000   0.00000   0.00000   0.06151
  36        2S          0.00000   0.00000   0.00000   0.00000   0.10203
  37        3S          0.00000   0.00000   0.00000   0.00000   0.02390
  38        4PX         0.00000   0.00000   0.00000   0.00000   0.00000
  39        4PY         0.00000   0.00000   0.00000   0.00000   0.00000
  40        4PZ         0.00000   0.00000   0.00000   0.00000   0.00600
  41        5PX         0.00000   0.00000   0.00000   0.00000   0.00000
  42        5PY         0.00000   0.00000   0.00000   0.00000   0.00000
  43        5PZ         0.00000   0.00000   0.00000   0.00000   0.01061
  44        6D 0        0.00000   0.00000   0.00000   0.00000   0.00197
  45        6D+1        0.00000   0.00000   0.00000   0.00000   0.00000
  46        6D-1        0.00000   0.00000   0.00000   0.00000   0.00000
  47        6D+2        0.00000   0.00000   0.00000   0.00000   0.00000
  48        6D-2        0.00000   0.00000   0.00000   0.00000   0.00000
                          36        37        38        39        40
  36        2S          0.17323
  37        3S          0.04187   0.01053
  38        4PX         0.00000   0.00000   0.00007
  39        4PY         0.00000   0.00000   0.00000   0.00007
  40        4PZ         0.00965   0.00216   0.00000   0.00000   0.00061
  41        5PX         0.00000   0.00000   0.00029   0.00000   0.00000
  42        5PY         0.00000   0.00000   0.00000   0.00029   0.00000
  43        5PZ         0.01744   0.00403   0.00000   0.00000   0.00105
  44        6D 0        0.00323   0.00074   0.00000   0.00000   0.00020
  45        6D+1        0.00000   0.00000   0.00004   0.00000   0.00000
  46        6D-1        0.00000   0.00000   0.00000   0.00004   0.00000
  47        6D+2        0.00000   0.00000   0.00000   0.00000   0.00000
  48        6D-2        0.00000   0.00000   0.00000   0.00000   0.00000
                          41        42        43        44        45
  41        5PX         0.00123
  42        5PY         0.00000   0.00123
  43        5PZ         0.00000   0.00000   0.00184
  44        6D 0        0.00000   0.00000   0.00034   0.00006
  45        6D+1        0.00017   0.00000   0.00000   0.00000   0.00002
  46        6D-1        0.00000   0.00017   0.00000   0.00000   0.00000
  47        6D+2        0.00000   0.00000   0.00000   0.00000   0.00000
  48        6D-2        0.00000   0.00000   0.00000   0.00000   0.00000
                          46        47        48
  46        6D-1        0.00002
  47        6D+2        0.00000   0.00000
  48        6D-2        0.00000   0.00000   0.00000
    Full Mulliken population analysis:
                           1         2         3         4         5
   1 1   Cl 1S          2.17011
   2        2S         -0.16352   2.10660
   3        3S         -0.00426  -0.05851   0.72107
   4        4S         -0.00493   0.08343   0.05747   0.02271
   5        5S          0.00254  -0.06394   0.40868   0.03412   0.34663
   6        6PX         0.00000   0.00000   0.00000   0.00000   0.00000
   7        6PY         0.00000   0.00000   0.00000   0.00000   0.00000
   8        6PZ         0.00000   0.00000   0.00000   0.00000   0.00000
   9        7PX         0.00000   0.00000   0.00000   0.00000   0.00000
  10        7PY         0.00000   0.00000   0.00000   0.00000   0.00000
  11        7PZ         0.00000   0.00000   0.00000   0.00000   0.00000
  12        8PX         0.00000   0.00000   0.00000   0.00000   0.00000
  13        8PY         0.00000   0.00000   0.00000   0.00000   0.00000
  14        8PZ         0.00000   0.00000   0.00000   0.00000   0.00000
  15        9PX         0.00000   0.00000   0.00000   0.00000   0.00000
  16        9PY         0.00000   0.00000   0.00000   0.00000   0.00000
  17        9PZ         0.00000   0.00000   0.00000   0.00000   0.00000
  18       10D 0        0.00000   0.00000   0.00000   0.00000   0.00000
  19       10D+1        0.00000   0.00000   0.00000   0.00000   0.00000
  20       10D-1        0.00000   0.00000   0.00000   0.00000   0.00000
  21       10D+2        0.00000   0.00000   0.00000   0.00000   0.00000
  22       10D-2        0.00000   0.00000   0.00000   0.00000   0.00000
  23       11D 0        0.00000   0.00000   0.00000   0.00000   0.00000
  24       11D+1        0.00000   0.00000   0.00000   0.00000   0.00000
  25       11D-1        0.00000   0.00000   0.00000   0.00000   0.00000
  26       11D+2        0.00000   0.00000   0.00000   0.00000   0.00000
  27       11D-2        0.00000   0.00000   0.00000   0.00000   0.00000
  28       12F 0        0.00000   0.00000   0.00000   0.00000   0.00000
  29       12F+1        0.00000   0.00000   0.00000   0.00000   0.00000
  30       12F-1        0.00000   0.00000   0.00000   0.00000   0.00000
  31       12F+2        0.00000   0.00000   0.00000   0.00000   0.00000
  32       12F-2        0.00000   0.00000   0.00000   0.00000   0.00000
  33       12F+3        0.00000   0.00000   0.00000   0.00000   0.00000
  34       12F-3        0.00000   0.00000   0.00000   0.00000   0.00000
[...]
   XX=            -13.9596   YY=            -13.9596   ZZ=            -10.3413
   XY=              0.0000   XZ=              0.0000   YZ=              0.0000
 Traceless Quadrupole moment (field-independent basis, Debye-Ang):
   XX=             -1.2061   YY=             -1.2061   ZZ=              2.4122
   XY=              0.0000   XZ=              0.0000   YZ=              0.0000
 Octapole moment (field-independent basis, Debye-Ang**2):
  XXX=              0.0000  YYY=              0.0000  ZZZ=             -2.7377  XYY=              0.0000
  XXY=              0.0000  XXZ=             -0.1930  XZZ=              0.0000  YZZ=              0.0000
  YYZ=             -0.1930  XYZ=              0.0000
 Hexadecapole moment (field-independent basis, Debye-Ang**3):
 XXXX=            -15.7975 YYYY=            -15.7975 ZZZZ=            -13.3270 XXXY=              0.0000
 XXXZ=              0.0000 YYYX=              0.0000 YYYZ=              0.0000 ZZZX=              0.0000
 ZZZY=              0.0000 XXYY=             -5.2658 XXZZ=             -5.6156 YYZZ=             -5.6156
 XXYZ=              0.0000 YYXZ=              0.0000 ZZXY=              0.0000
 N-N= 7.098682561137D+00 E-N=-1.110091644360D+03  KE= 4.601259114014D+02
 Symmetry A1   KE= 3.686117247163D+02
 Symmetry A2   KE=-3.298364921155D-51
 Symmetry B1   KE= 4.575709334254D+01
 Symmetry B2   KE= 4.575709334254D+01
 Orbital energies and kinetic energies (alpha):
                                 1                 2
   1         O              -104.845436        137.134401
   2         O               -10.571684         21.788080
   3         O                -8.038808         20.618602
   4         O                -8.036586         20.657365
   5         O                -8.036586         20.657365
   6         O                -1.117032          2.801456
   7         O                -0.625319          1.963323
   8         O                -0.475609          2.221182
   9         O                -0.475609          2.221182
  10         V                 0.126087          0.818309
  11         V                 0.328977          0.869418
  12         V                 0.490480          1.417939
  13         V                 0.490480          1.417939
  14         V                 0.497508          1.709844
  15         V                 0.566002          1.216051
  16         V                 0.566002          1.216051
  17         V                 0.658153          1.375091
  18         V                 0.658153          1.375091
  19         V                 0.724771          2.363990
  20         V                 0.950924          1.707928
  21         V                 1.079498          1.486412
  22         V                 1.079498          1.486412
  23         V                 1.502810          2.663111
  24         V                 2.151273          3.601224
  25         V                 2.193684          3.841364
  26         V                 2.193684          3.841364
  27         V                 2.236547          4.177097
  28         V                 2.236547          4.177097
  29         V                 2.337905          3.093250
  30         V                 2.337905          3.093250
  31         V                 2.407793          3.177000
  32         V                 2.407793          3.177000
  33         V                 2.430059          4.483081
  34         V                 2.544195          7.496379
  35         V                 2.544195          7.496379
  36         V                 2.609011          4.751701
  37         V                 2.609011          4.751701
  38         V                 2.737733          6.702265
  39         V                 3.222738          5.984740
  40         V                 3.585480          3.980289
  41         V                 3.585480          3.980289
  42         V                 3.955291          4.634586
  43         V                 3.955291          4.634586
  44         V                 4.329849          7.973150
  45         V                 4.419892          4.974397
  46         V                 4.419892          4.974397
  47         V                 4.765292          7.705736
  48         V                 6.295711         11.371437
 Total kinetic energy from orbitals= 4.601259114014D+02
  Exact polarizability:  10.119   0.000  10.119   0.000   0.000  14.646
 Approx polarizability:  10.167   0.000  10.167   0.000   0.000  14.802
 No NMR shielding tensors so no spin-rotation constants.
 Leave Link  601 at Wed Sep 03 17:59:05 2025, MaxMem=   536870912 cpu:               0.0 elap:               0.1
 (Enter C:\G16W\l701.exe)
 ... and contract with generalized density number  0.
 Compute integral second derivatives.
 Leave Link  701 at Wed Sep 03 17:59:05 2025, MaxMem=   536870912 cpu:               0.0 elap:               0.1
 (Enter C:\G16W\l702.exe)
 L702 exits ... SP integral derivatives will be done elsewhere.
 Leave Link  702 at Wed Sep 03 17:59:06 2025, MaxMem=   536870912 cpu:               1.0 elap:               0.0
 (Enter C:\G16W\l703.exe)
 Integral derivatives from FoFJK, PRISM(SPDF).
 Compute integral second derivatives, UseDBF=F ICtDFT=           0.
 Calling FoFJK, ICntrl=    100127 FMM=F ISym2X=1 I1Cent= 0 IOpClX= 0 NMat=1 NMatS=1 NMatT=0.
 FoFJK:  IHMeth= 1 ICntrl=  100127 DoSepK=F KAlg= 0 I1Cent=           0 FoldK=F
 IRaf=         0 NMat=       1 IRICut=       1 DoRegI=T DoRafI=F ISym2E= 1 IDoP0=0 IntGTp=1.
 FoFCou: FMM=F IPFlag=           0 FMFlag=      100000 FMFlg1=         800
         NFxFlg=           0 DoJE=F BraDBF=F KetDBF=F FulRan=T
         wScrn=  0.000000 ICntrl=    100127 IOpCl=  0 I1Cent=           0 NGrid=           0
         NMat0=    1 NMatS0=      1 NMatT0=    0 NMatD0=    1 NMtDS0=    0 NMtDT0=    0
 Petite list used in FoFCou.
 Leave Link  703 at Wed Sep 03 17:59:06 2025, MaxMem=   536870912 cpu:               0.0 elap:               0.5
 (Enter C:\G16W\l716.exe)
 Dipole        = 0.00000000D+00 0.00000000D+00-4.95962118D-01
 Polarizability= 1.01192389D+01 0.00000000D+00 1.01192389D+01
                 0.00000000D+00 0.00000000D+00 1.46456899D+01
 HyperPolar    = 0.00000000D+00 0.00000000D+00 0.00000000D+00
                 0.00000000D+00-2.36954610D+00 0.00000000D+00
                -2.36954610D+00 0.00000000D+00 0.00000000D+00
                -3.00795339D+01
 Full mass-weighted force constant matrix:
 Low frequencies ---    0.0062    0.0062    0.0097    0.1773    0.1773 3138.2777
 Diagonal vibrational polarizability:
        0.0000000       0.0000000       0.1361563
 Diagonal vibrational hyperpolarizability:
        0.0000000       0.0000000      -5.8954486
 Harmonic frequencies (cm**-1), IR intensities (KM/Mole), Raman scattering
 activities (A**4/AMU), depolarization ratios for plane and unpolarized
 incident light, reduced masses (AMU), force constants (mDyne/A),
 and normal coordinates:
                      1
                     SG
 Frequencies --   3138.2777
 Red. masses --      1.0360
 Frc consts  --      6.0117
 IR Inten    --     49.8296
 Raman Activ --     90.5588
 Depolar (P) --      0.3242
 Depolar (U) --      0.4897
  Atom  AN      X      Y      Z
     1  17     0.00   0.00  -0.03
     2   1     0.00   0.00   1.00

 -------------------
 - Thermochemistry -
 -------------------
 Temperature   298.150 Kelvin.  Pressure   1.00000 Atm.
 Atom     1 has atomic number 17 and mass  34.96885
 Atom     2 has atomic number  1 and mass   1.00783
 Molecular mass:    35.97668 amu.
 Principal axes and moments of inertia in atomic units:
                           1         2         3
     Eigenvalues --     0.00000   5.61808   5.61808
           X            0.00000   0.00000   1.00000
           Y            0.00000   1.00000   0.00000
           Z            1.00000   0.00000   0.00000
 This molecule is a prolate symmetric top.
 Rotational symmetry number  1.
 Rotational temperature (Kelvin)     15.41700
 Rotational constant (GHZ):         321.238162
 Zero-point vibrational energy      18771.1 (Joules/Mol)
                                    4.48639 (Kcal/Mol)
 Vibrational temperatures:   4515.28
          (Kelvin)
 
 Zero-point correction=                           0.007150 (Hartree/Particle)
 Thermal correction to Energy=                    0.009510
 Thermal correction to Enthalpy=                  0.010454
 Thermal correction to Gibbs Free Energy=        -0.010710
 Sum of electronic and zero-point Energies=           -460.099702
 Sum of electronic and thermal Energies=              -460.097342
 Sum of electronic and thermal Enthalpies=            -460.096397
 Sum of electronic and thermal Free Energies=         -460.117562
 
                     E (Thermal)             CV                S
                      KCal/Mol        Cal/Mol-Kelvin    Cal/Mol-Kelvin
 Total                    5.968              4.968             44.544
 Electronic               0.000              0.000              0.000
 Translational            0.889              2.981             36.671
 Rotational               0.592              1.987              7.874
 Vibrational              4.486              0.000              0.000
                       Q            Log10(Q)             Ln(Q)
 Total Bot       0.844056D+05          4.926371         11.343389
 Total V=0       0.164029D+09          8.214920         18.915553
 Vib (Bot)       0.514578D-03         -3.288549         -7.572164
 Vib (V=0)       0.100000D+01          0.000000          0.000000
 Electronic      0.100000D+01          0.000000          0.000000
 Translational   0.848175D+07          6.928485         15.953427
 Rotational      0.193390D+02          1.286435          2.962126
 ***** Axes restored to original set *****
 -------------------------------------------------------------------
 Center     Atomic                   Forces (Hartrees/Bohr)
 Number     Number              X              Y              Z
 -------------------------------------------------------------------
      1       17           0.000000000    0.000000000    0.000000009
      2        1           0.000000000    0.000000000   -0.000000009
 -------------------------------------------------------------------
 Cartesian Forces:  Max     0.000000009 RMS     0.000000005
 Force constants in Cartesian coordinates: 
                1             2             3             4             5 
      1  0.000000D+00
      2  0.000000D+00  0.000000D+00
      3  0.000000D+00  0.000000D+00  0.365107D+00
      4  0.000000D+00  0.000000D+00  0.000000D+00  0.000000D+00
      5  0.000000D+00  0.000000D+00  0.000000D+00  0.000000D+00  0.000000D+00
      6  0.000000D+00  0.000000D+00 -0.365107D+00  0.000000D+00  0.000000D+00
                6 
      6  0.365107D+00
 FormGI is forming the generalized inverse of G from B-inverse, IUseBI=4.
 Force constants in internal coordinates: 
                1 
      1  0.365107D+00
 Leave Link  716 at Wed Sep 03 17:59:06 2025, MaxMem=   536870912 cpu:               0.0 elap:               0.0
 (Enter C:\G16W\l103.exe)

 GradGradGradGradGradGradGradGradGradGradGradGradGradGradGradGradGradGrad
 Berny optimization.
 Red2BG is reusing G-inverse.
 Internal  Forces:  Max     0.000000009 RMS     0.000000009
 Search for a local minimum.
 Step number   1 out of a maximum of    2
 All quantities printed in internal units (Hartrees-Bohrs-Radians)
 Second derivative matrix not updated -- analytic derivatives used.
 The second derivative matrix:
                          R1
           R1           0.36511
 ITU=  0
     Eigenvalues ---    0.36511
 Angle between quadratic step and forces=  90.00 degrees.
 Linear search not attempted -- first point.
 Iteration  1 RMS(Cart)=  0.00000002 RMS(Int)=  0.00000000
 ITry= 1 IFail=0 DXMaxC= 1.17D-08 DCOld= 1.00D+10 DXMaxT= 3.00D-01 DXLimC= 3.00D+00 Rises=F
 ClnCor:  largest displacement from symmetrization is 0.00D+00 for atom     0.
 Variable       Old X    -DE/DX   Delta X   Delta X   Delta X     New X
                                 (Linear)    (Quad)   (Total)
    R1        2.39481   0.00000   0.00000   0.00000   0.00000   2.39481
         Item               Value     Threshold  Converged?
 Maximum Force            0.000000     0.000015     YES
 RMS     Force            0.000000     0.000010     YES
 Maximum Displacement     0.000000     0.000060     YES
 RMS     Displacement     0.000000     0.000040     YES
 Predicted change in Energy=-1.007647D-16
 Optimization completed.
    -- Stationary point found.
                           ----------------------------
                           !   Optimized Parameters   !
                           ! (Angstroms and Degrees)  !
 --------------------------                            --------------------------
 ! Name  Definition              Value          Derivative Info.                !
 --------------------------------------------------------------------------------
 ! R1    R(1,2)                  1.2673         -DE/DX =    0.0                 !
 --------------------------------------------------------------------------------
 GradGradGradGradGradGradGradGradGradGradGradGradGradGradGradGradGradGrad

 Leave Link  103 at Wed Sep 03 17:59:06 2025, MaxMem=   536870912 cpu:               0.0 elap:               0.0
 (Enter C:\G16W\l9999.exe)

 ----------------------------------------------------------------------

 Electric dipole moment (input orientation):
 (Debye = 10**-18 statcoulomb cm , SI units = C m)
                  (au)            (Debye)         (10**-30 SI)
   Tot        0.495962D+00      0.126061D+01      0.420494D+01
   x          0.000000D+00      0.000000D+00      0.000000D+00
   y          0.000000D+00      0.000000D+00      0.000000D+00
   z          0.495962D+00      0.126061D+01      0.420494D+01

 Dipole polarizability, Alpha (input orientation).
 (esu units = cm**3 , SI units = C**2 m**2 J**-1)
 Alpha(0;0):
               (au)            (10**-24 esu)      (10**-40 SI)
   iso        0.116281D+02      0.172310D+01      0.191721D+01
   aniso      0.452645D+01      0.670751D+00      0.746311D+00
   xx         0.101192D+02      0.149952D+01      0.166844D+01
   yx         0.000000D+00      0.000000D+00      0.000000D+00
   yy         0.101192D+02      0.149952D+01      0.166844D+01
   zx         0.000000D+00      0.000000D+00      0.000000D+00
   zy         0.000000D+00      0.000000D+00      0.000000D+00
   zz         0.146457D+02      0.217027D+01      0.241475D+01

 First dipole hyperpolarizability, Beta (input orientation).
 ||, _|_  parallel and perpendicular components, (z) with respect to z axis,
 vector components x,y,z.  Values do not include the 1/n! factor of 1/2.
 (esu units = statvolt**-1 cm**4 , SI units = C**3 m**3 J**-2)
 Beta(0;0,0):
               (au)            (10**-30 esu)      (10**-50 SI)
   || (z)     0.208912D+02      0.180483D+00      0.669847D-01
   _|_(z)     0.696373D+01      0.601612D-01      0.223282D-01
   x          0.000000D+00      0.000000D+00      0.000000D+00
   y          0.000000D+00      0.000000D+00      0.000000D+00
   z          0.104456D+03      0.902417D+00      0.334923D+00
   ||         0.208912D+02      0.180483D+00      0.669847D-01
   xxx        0.000000D+00      0.000000D+00      0.000000D+00
   xxy        0.000000D+00      0.000000D+00      0.000000D+00
   yxy        0.000000D+00      0.000000D+00      0.000000D+00
   yyy        0.000000D+00      0.000000D+00      0.000000D+00
   xxz        0.236955D+01      0.204710D-01      0.759762D-02
   yxz        0.000000D+00      0.000000D+00      0.000000D+00
   yyz        0.236955D+01      0.204710D-01      0.759762D-02
   zxz        0.000000D+00      0.000000D+00      0.000000D+00
   zyz        0.000000D+00      0.000000D+00      0.000000D+00
   zzz        0.300795D+02      0.259864D+00      0.964459D-01

 ----------------------------------------------------------------------

 Dipole orientation:
    17          0.00000000          0.00000000          0.00729512
     1          0.00000000          0.00000000          2.40210569

 Electric dipole moment (dipole orientation):
 (Debye = 10**-18 statcoulomb cm , SI units = C m)
                  (au)            (Debye)         (10**-30 SI)
   Tot        0.495962D+00      0.126061D+01      0.420494D+01
   x          0.000000D+00      0.000000D+00      0.000000D+00
   y          0.000000D+00      0.000000D+00      0.000000D+00
   z          0.495962D+00      0.126061D+01      0.420494D+01

 Dipole polarizability, Alpha (dipole orientation).
 (esu units = cm**3 , SI units = C**2 m**2 J**-1)
 Alpha(0;0):
               (au)            (10**-24 esu)      (10**-40 SI)
   iso        0.116281D+02      0.172310D+01      0.191721D+01
   aniso      0.452645D+01      0.670751D+00      0.746311D+00
   xx         0.101192D+02      0.149952D+01      0.166844D+01
   yx         0.000000D+00      0.000000D+00      0.000000D+00
   yy         0.101192D+02      0.149952D+01      0.166844D+01
   zx         0.000000D+00      0.000000D+00      0.000000D+00
   zy         0.000000D+00      0.000000D+00      0.000000D+00
   zz         0.146457D+02      0.217027D+01      0.241475D+01

 First dipole hyperpolarizability, Beta (dipole orientation).
 ||, _|_  parallel and perpendicular components, (z) with respect to z axis,
 vector components x,y,z.  Values do not include the 1/n! factor of 1/2.
 (esu units = statvolt**-1 cm**4 , SI units = C**3 m**3 J**-2)
 Beta(0;0,0):
               (au)            (10**-30 esu)      (10**-50 SI)
   || (z)     0.208912D+02      0.180483D+00      0.669847D-01
   _|_(z)     0.696373D+01      0.601612D-01      0.223282D-01
   x          0.000000D+00      0.000000D+00      0.000000D+00
   y          0.000000D+00      0.000000D+00      0.000000D+00
   z          0.104456D+03      0.902417D+00      0.334923D+00
   ||         0.208912D+02      0.180483D+00      0.669847D-01
   xxx        0.000000D+00      0.000000D+00      0.000000D+00
   xxy        0.000000D+00      0.000000D+00      0.000000D+00
   yxy        0.000000D+00      0.000000D+00      0.000000D+00
   yyy        0.000000D+00      0.000000D+00      0.000000D+00
   xxz        0.236955D+01      0.204710D-01      0.759762D-02
   yxz        0.000000D+00      0.000000D+00      0.000000D+00
   yyz        0.236955D+01      0.204710D-01      0.759762D-02
   zxz        0.000000D+00      0.000000D+00      0.000000D+00
   zyz        0.000000D+00      0.000000D+00      0.000000D+00
   zzz        0.300795D+02      0.259864D+00      0.964459D-01

 ----------------------------------------------------------------------
 1|1|UNPC-DESKTOP-SI45VP7|Freq|RHF|CC-pVTZ|Cl1H1|DOG OF ROMAN|03-Sep-20
 25|0||#P Geom=AllCheck Guess=TCheck SCRF=Check GenChk RHF/CC-pVTZ Freq
 ||Calculation of the ground state energy with STO-3G basis set||0,1|Cl
 ,0.,0.,0.0038604121|H,0.,0.,1.2711395879||Version=EM64W-G16RevB.01|Sta
 te=1-SG|HF=-460.1068515|RMSD=7.505e-010|RMSF=4.952e-009|ZeroPoint=0.00
 71495|Thermal=0.00951|Dipole=0.,0.,0.4959621|DipoleDeriv=-0.2070987,0.
 ,0.,0.,-0.2070987,0.,0.,0.,-0.2237643,0.2070987,0.,0.,0.,0.2070987,0.,
 0.,0.,0.2237643|Polar=10.1192389,0.,10.1192389,0.,0.,14.6456899|PolarD
 eriv=0.,0.,0.,-1.8901081,0.,0.,0.,0.,0.,0.,-1.8901081,0.,-0.0797882,0.
 ,-0.0797882,0.,0.,-9.6887991,0.,0.,0.,1.8901081,0.,0.,0.,0.,0.,0.,1.89
 01081,0.,0.0797882,0.,0.0797882,0.,0.,9.6887991|HyperPolar=0.,0.,0.,0.
 ,2.3695461,0.,2.3695461,0.,0.,30.0795339|Quadrupole=-0.8967151,-0.8967
 151,1.7934302,0.,0.,0.|PG=C*V [C*(H1Cl1)]|NImag=0||0.,0.,0.,0.,0.,0.36
 510658,0.,0.,0.,0.,0.,0.,0.,0.,0.,0.,0.,-0.36510658,0.,0.,0.36510658||
 0.,0.,0.,0.,0.,0.|||@


 FROM THE ASHES OF OUR DESPAIR GROW THE FLOWERS OF TOMORROW.
 Job cpu time:       0 days  0 hours  0 minutes  2.0 seconds.
 Elapsed time:       0 days  0 hours  0 minutes  1.7 seconds.
 File lengths (MBytes):  RWF=      6 Int=      0 D2E=      0 Chk=      2 Scr=      1
 Normal termination of Gaussian 16 at Wed Sep 03 17:59:06 2025.
