 Entering Link 1 = C:\G16W\l1.exe PID=     55336.
  
 Copyright (c) 1988-2017, Gaussian, Inc.  All Rights Reserved.
  
 This is part of the Gaussian(R) 16 program.  It is based on
 the Gaussian(R) 09 system (copyright 2009, Gaussian, Inc.),
 the Gaussian(R) 03 system (copyright 2003, Gaussian, Inc.),
 the Gaussian(R) 98 system (copyright 1998, Gaussian, Inc.),
 the Gaussian(R) 94 system (copyright 1995, Gaussian, Inc.),
 the Gaussian 92(TM) system (copyright 1992, Gaussian, Inc.),
 the Gaussian 90(TM) system (copyright 1990, Gaussian, Inc.),
 the Gaussian 88(TM) system (copyright 1988, Gaussian, Inc.),
 the Gaussian 86(TM) system (copyright 1986, Carnegie Mellon
 University), and the Gaussian 82(TM) system (copyright 1983,
 Carnegie Mellon University). Gaussian is a federally registered
 trademark of Gaussian, Inc.
  
 This software contains proprietary and confidential information,
 including trade secrets, belonging to Gaussian, Inc.
  
 This software is provided under written license and may be
 used, copied, transmitted, or stored only in accord with that
 written license.
  
 The following legend is applicable only to US Government
 contracts under FAR:
  
                    RESTRICTED RIGHTS LEGEND
  
 Use, reproduction and disclosure by the US Government is
 subject to restrictions as set forth in subparagraphs (a)
 and (c) of the Commercial Computer Software - Restricted
 Rights clause in FAR 52.227-19.
  
 Gaussian, Inc.
 340 Quinnipiac St., Bldg. 40, Wallingford CT 06492
  
  
 ---------------------------------------------------------------
 Warning -- This program may not be used in any manner that
 competes with the business of Gaussian, Inc. or will provide
 assistance to any competitor of Gaussian, Inc.  The licensee
 of this program is prohibited from giving any competitor of
 Gaussian, Inc. access to this program.  By using this program,
 the user acknowledges that Gaussian, Inc. is engaged in the
 business of creating and licensing software in the field of
 computational chemistry and represents and warrants to the
 licensee that it is not a competitor of Gaussian, Inc. and that
 it will not use this program in any manner prohibited above.
 ---------------------------------------------------------------
  

 Cite this work as:
 Gaussian 16, Revision B.01,
 M. J. Frisch, G. W. Trucks, H. B. Schlegel, G. E. Scuseria, 
 M. A. Robb, J. R. Cheeseman, G. Scalmani, V. Barone, 
 G. A. Petersson, H. Nakatsuji, X. Li, M. Caricato, A. V. Marenich, 
 J. Bloino, B. G. Janesko, R. Gomperts, B. Mennucci, H. P. Hratchian, 
 J. V. Ortiz, A. F. Izmaylov, J. L. Sonnenberg, D. Williams-Young, 
 F. Ding, F. Lipparini, F. Egidi, J. Goings, B. Peng, A. Petrone, 
 T. Henderson, D. Ranasinghe, V. G. Zakrzewski, J. Gao, N. Rega, 
 G. Zheng, W. Liang, M. Hada, M. Ehara, K. Toyota, R. Fukuda, 
 J. Hasegawa, M. Ishida, T. Nakajima, Y. Honda, O. Kitao, H. Nakai, 
 T. Vreven, K. Throssell, J. A. Montgomery, Jr., J. E. Peralta, 
 F. Ogliaro, M. J. Bearpark, J. J. Heyd, E. N. Brothers, K. N. Kudin, 
 V. N. Staroverov, T. A. Keith, R. Kobayashi, J. Normand, 
 K. Raghavachari, A. P. Rendell, J. C. Burant, S. S. Iyengar, 
 J. Tomasi, M. Cossi, J. M. Millam, M. Klene, C. Adamo, R. Cammi, 
 J. W. Ochterski, R. L. Martin, K. Morokuma, O. Farkas, 
 J. B. Foresman, and D. J. Fox, Gaussian, Inc., Wallingford CT, 2016.
 
 ******************************************
 Gaussian 16:  EM64W-G16RevB.01 16-Dec-2017
                03-Sep-2025 
 ******************************************
 %chk=HCl.chk
 %mem=4GB
 %nproc=1
 Will use up to    1 processors via shared memory.
 --------------------------------------------------------
 #p hf/cc-pVQZ opt=(tight,calcfc) freq scf=tight pop=full
 --------------------------------------------------------
 1/7=10,10=4,18=20,19=15,38=1/1,3;
 2/9=110,12=2,17=6,18=5,40=1/2;
 3/5=16,6=2,11=9,25=1,30=1,71=2,140=1/1,2,3;
 4//1;
 5/5=2,32=2,38=5/2;
 8/6=4,10=90,11=11/1;
 11/6=1,8=1,9=11,15=111,16=1/1,2,10;
 10/6=1,13=1/2;
 6/7=3,28=1/1;
 7/10=1,18=20,25=1/1,2,3,16;
 1/7=10,10=4,18=20,19=15/3(2);
 2/9=110/2;
 99//99;
 2/9=110/2;
 3/5=16,6=2,11=9,25=1,30=1,71=1/1,2,3;
 4/5=5,16=3,69=1/1;
 5/5=2,32=2,38=5/2;
 7//1,2,3,16;
 1/7=10,18=20,19=15/3(-5);
 2/9=110/2;
 6/7=3,19=2,28=1/1;
 99/9=1/99;
 Leave Link    1 at Wed Sep 03 18:01:36 2025, MaxMem=   536870912 cpu:               0.0 elap:               0.0
 (Enter C:\G16W\l101.exe)
 ------------------------------------------------------------
 Calculation of the ground state energy with STO-3G basis set
 ------------------------------------------------------------
 Symbolic Z-matrix:
 Charge =  0 Multiplicity = 1
 Cl
 H                    1    B1
       Variables:
  B1                    1.275                    
 
 ITRead=  0  0
 MicOpt= -1 -1
 NAtoms=      2 NQM=        2 NQMF=       0 NMMI=      0 NMMIF=      0
                NMic=       0 NMicF=      0.
                    Isotopes and Nuclear Properties:
 (Nuclear quadrupole moments (NQMom) in fm**2, nuclear magnetic moments (NMagM)
  in nuclear magnetons)

  Atom         1           2
 IAtWgt=          35           1
 AtmWgt=  34.9688527   1.0078250
 NucSpn=           3           1
 AtZEff=   0.0000000   0.0000000
 NQMom=   -8.1650000   0.0000000
 NMagM=    0.8218740   2.7928460
 AtZNuc=  17.0000000   1.0000000
 Leave Link  101 at Wed Sep 03 18:01:36 2025, MaxMem=   536870912 cpu:               0.0 elap:               0.1
 (Enter C:\G16W\l103.exe)

 GradGradGradGradGradGradGradGradGradGradGradGradGradGradGradGradGradGrad
 Berny optimization.
 Initialization pass.
                           ----------------------------
                           !    Initial Parameters    !
                           ! (Angstroms and Degrees)  !
 --------------------------                            --------------------------
 ! Name  Definition              Value          Derivative Info.                !
 --------------------------------------------------------------------------------
 ! R1    R(1,2)                  1.275          calculate D2E/DX2 analytically  !
 --------------------------------------------------------------------------------
 Trust Radius=3.00D-01 FncErr=1.00D-07 GrdErr=1.00D-07 EigMax=2.50D+02 EigMin=1.00D-04
 Number of steps in this run=     20 maximum allowed number of steps=    100.
 GradGradGradGradGradGradGradGradGradGradGradGradGradGradGradGradGradGrad

 Leave Link  103 at Wed Sep 03 18:01:36 2025, MaxMem=   536870912 cpu:               0.0 elap:               0.0
 (Enter C:\G16W\l202.exe)
                          Input orientation:                          
 ---------------------------------------------------------------------
 Center     Atomic      Atomic             Coordinates (Angstroms)
 Number     Number       Type             X           Y           Z
 ---------------------------------------------------------------------
      1         17           0        0.000000    0.000000    0.000000
      2          1           0        0.000000    0.000000    1.275000
 ---------------------------------------------------------------------
 Stoichiometry    ClH
 Framework group  C*V[C*(HCl)]
 Deg. of freedom     1
 Full point group                 C*V     NOp   4
 Largest Abelian subgroup         C2V     NOp   4
 Largest concise Abelian subgroup C1      NOp   1
                         Standard orientation:                         
 ---------------------------------------------------------------------
 Center     Atomic      Atomic             Coordinates (Angstroms)
 Number     Number       Type             X           Y           Z
 ---------------------------------------------------------------------
      1         17           0        0.000000    0.000000    0.070833
      2          1           0        0.000000    0.000000   -1.204167
 ---------------------------------------------------------------------
 Rotational constants (GHZ):           0.0000000         317.3593948         317.3593948
 Leave Link  202 at Wed Sep 03 18:01:36 2025, MaxMem=   536870912 cpu:               0.0 elap:               0.0
 (Enter C:\G16W\l301.exe)
 Standard basis: CC-pVQZ (5D, 7F)
 Ernie: Thresh=  0.10000D-02 Tol=  0.10000D-05 Strict=F.
 Ernie:  15 primitive shells out of 79 were deleted.
 There are    48 symmetry adapted cartesian basis functions of A1  symmetry.
 There are    11 symmetry adapted cartesian basis functions of A2  symmetry.
 There are    25 symmetry adapted cartesian basis functions of B1  symmetry.
 There are    25 symmetry adapted cartesian basis functions of B2  symmetry.
 There are    37 symmetry adapted basis functions of A1  symmetry.
 There are    10 symmetry adapted basis functions of A2  symmetry.
 There are    21 symmetry adapted basis functions of B1  symmetry.
 There are    21 symmetry adapted basis functions of B2  symmetry.
    89 basis functions,   168 primitive gaussians,   109 cartesian basis functions
     9 alpha electrons        9 beta electrons
       nuclear repulsion energy         7.0556961456 Hartrees.
 IExCor=    0 DFT=F Ex=HF Corr=None ExCW=0 ScaHFX=  1.000000
 ScaDFX=  1.000000  1.000000  1.000000  1.000000 ScalE2=  1.000000  1.000000
 IRadAn=      5 IRanWt=     -1 IRanGd=            0 ICorTp=0 IEmpDi=  4
 NAtoms=    2 NActive=    2 NUniq=    2 SFac= 1.00D+00 NAtFMM=   60 NAOKFM=F Big=F
 Integral buffers will be    131072 words long.
 Raffenetti 1 integral format.
 Two-electron integral symmetry is turned on.
 Leave Link  301 at Wed Sep 03 18:01:36 2025, MaxMem=   536870912 cpu:               0.0 elap:               0.0
 (Enter C:\G16W\l302.exe)
 NPDir=0 NMtPBC=     1 NCelOv=     1 NCel=       1 NClECP=     1 NCelD=      1
         NCelK=      1 NCelE2=     1 NClLst=     1 CellRange=     0.0.
 One-electron integrals computed using PRISM.
 One-electron integral symmetry used in STVInt
 NBasis=    89 RedAO= T EigKep=  5.49D-04  NBF=    37    10    21    21
 NBsUse=    89 1.00D-06 EigRej= -1.00D+00 NBFU=    37    10    21    21
 Leave Link  302 at Wed Sep 03 18:01:36 2025, MaxMem=   536870912 cpu:               0.0 elap:               0.1
 (Enter C:\G16W\l303.exe)
 DipDrv:  MaxL=1.
 Leave Link  303 at Wed Sep 03 18:01:36 2025, MaxMem=   536870912 cpu:               0.0 elap:               0.0
 (Enter C:\G16W\l401.exe)
 ExpMin= 8.99D-02 ExpMax= 8.35D+05 ExpMxC= 2.61D+03 IAcc=3 IRadAn=         5 AccDes= 0.00D+00
 Harris functional with IExCor=  205 and IRadAn=       5 diagonalized for initial guess.
 HarFok:  IExCor=  205 AccDes= 0.00D+00 IRadAn=         5 IDoV= 1 UseB2=F ITyADJ=14
 ICtDFT=  3500011 ScaDFX=  1.000000  1.000000  1.000000  1.000000
 FoFCou: FMM=F IPFlag=           0 FMFlag=      100000 FMFlg1=           0
         NFxFlg=           0 DoJE=T BraDBF=F KetDBF=T FulRan=T
         wScrn=  0.000000 ICntrl=       500 IOpCl=  0 I1Cent=   200000004 NGrid=           0
         NMat0=    1 NMatS0=      1 NMatT0=    0 NMatD0=    1 NMtDS0=    0 NMtDT0=    0
 Petite list used in FoFCou.
 Harris En= -459.672192008572    
 JPrj=0 DoOrth=F DoCkMO=F.
 Initial guess orbital symmetries:
       Occupied  (SG) (SG) (SG) (PI) (PI) (SG) (SG) (PI) (PI)
       Virtual   (SG) (SG) (SG) (PI) (PI) (PI) (PI) (DLTA) (DLTA)
                 (SG) (SG) (PI) (PI) (SG) (SG) (PI) (PI) (DLTA)
                 (DLTA) (DLTA) (DLTA) (PHI) (PHI) (PI) (PI) (SG)
                 (SG) (PI) (PI) (SG) (DLTA) (DLTA) (PI) (PI) (SG)
                 (PI) (PI) (SG) (SG) (PHI) (PHI) (?A) (?A) (DLTA)
                 (DLTA) (PI) (PI) (SG) (DLTA) (DLTA) (PHI) (PHI)
                 (DLTA) (DLTA) (PI) (PI) (SG) (SG) (PI) (PI) (PI)
                 (PI) (PHI) (PHI) (SG) (DLTA) (DLTA) (SG) (PI)
                 (PI) (SG) (DLTA) (DLTA) (PI) (PI) (PI) (PI) (SG)
                 (SG) (SG)
 The electronic state of the initial guess is 1-SG.
 Leave Link  401 at Wed Sep 03 18:01:36 2025, MaxMem=   536870912 cpu:               0.0 elap:               0.1
 (Enter C:\G16W\l502.exe)
 Keep R1 ints in memory in symmetry-blocked form, NReq=12598304.
 FoFCou: FMM=F IPFlag=           0 FMFlag=           0 FMFlg1=           0
         NFxFlg=           0 DoJE=F BraDBF=F KetDBF=F FulRan=T
         wScrn=  0.000000 ICntrl=       600 IOpCl=  0 I1Cent=           0 NGrid=           0
         NMat0=    1 NMatS0=   4005 NMatT0=    0 NMatD0=    1 NMtDS0=    0 NMtDT0=    0
 Petite list used in FoFCou.
 Closed shell SCF:
 Using DIIS extrapolation, IDIIS=  1040.
 NGot=   536870912 LenX=   534784466 LenY=   534772144
 Requested convergence on RMS density matrix=1.00D-08 within 128 cycles.
 Requested convergence on MAX density matrix=1.00D-06.
 Requested convergence on             energy=1.00D-06.
 No special actions if energy rises.

 Cycle   1  Pass 1  IDiag  1:
 E= -460.088564715075    
 DIIS: error= 6.30D-02 at cycle   1 NSaved=   1.
 NSaved= 1 IEnMin= 1 EnMin= -460.088564715075     IErMin= 1 ErrMin= 6.30D-02
 ErrMax= 6.30D-02  0.00D+00 EMaxC= 1.00D-01 BMatC= 1.69D-01 BMatP= 1.69D-01
 IDIUse=3 WtCom= 3.70D-01 WtEn= 6.30D-01
 Coeff-Com:  0.100D+01
 Coeff-En:   0.100D+01
 Coeff:      0.100D+01
 Gap=     0.592 Goal=   None    Shift=    0.000
 GapD=    0.592 DampG=2.000 DampE=0.500 DampFc=1.0000 IDamp=-1.
 RMSDP=9.97D-04 MaxDP=2.55D-02              OVMax= 2.19D-02

 Cycle   2  Pass 1  IDiag  1:
 E= -460.110828829055     Delta-E=       -0.022264113980 Rises=F Damp=F
 DIIS: error= 2.23D-03 at cycle   2 NSaved=   2.
 NSaved= 2 IEnMin= 2 EnMin= -460.110828829055     IErMin= 2 ErrMin= 2.23D-03
 ErrMax= 2.23D-03  0.00D+00 EMaxC= 1.00D-01 BMatC= 4.25D-04 BMatP= 1.69D-01
 IDIUse=3 WtCom= 9.78D-01 WtEn= 2.23D-02
 Coeff-Com:  0.998D-03 0.999D+00
 Coeff-En:   0.000D+00 0.100D+01
 Coeff:      0.976D-03 0.999D+00
 Gap=     0.584 Goal=   None    Shift=    0.000
 RMSDP=2.12D-04 MaxDP=7.21D-03 DE=-2.23D-02 OVMax= 6.25D-03

 Cycle   3  Pass 1  IDiag  1:
 E= -460.111173900366     Delta-E=       -0.000345071311 Rises=F Damp=F
 DIIS: error= 8.19D-04 at cycle   3 NSaved=   3.
 NSaved= 3 IEnMin= 3 EnMin= -460.111173900366     IErMin= 3 ErrMin= 8.19D-04
 ErrMax= 8.19D-04  0.00D+00 EMaxC= 1.00D-01 BMatC= 1.95D-05 BMatP= 4.25D-04
 IDIUse=3 WtCom= 9.92D-01 WtEn= 8.19D-03
 Coeff-Com: -0.274D-02-0.917D-01 0.109D+01
 Coeff-En:   0.000D+00 0.000D+00 0.100D+01
 Coeff:     -0.272D-02-0.910D-01 0.109D+01
 Gap=     0.581 Goal=   None    Shift=    0.000
 RMSDP=5.98D-05 MaxDP=1.57D-03 DE=-3.45D-04 OVMax= 3.09D-03

 Cycle   4  Pass 1  IDiag  1:
 E= -460.111209903218     Delta-E=       -0.000036002852 Rises=F Damp=F
 DIIS: error= 2.69D-04 at cycle   4 NSaved=   4.
 NSaved= 4 IEnMin= 4 EnMin= -460.111209903218     IErMin= 4 ErrMin= 2.69D-04
 ErrMax= 2.69D-04  0.00D+00 EMaxC= 1.00D-01 BMatC= 2.33D-06 BMatP= 1.95D-05
 IDIUse=3 WtCom= 9.97D-01 WtEn= 2.69D-03
 Coeff-Com: -0.743D-03-0.159D-01 0.159D-01 0.100D+01
 Coeff-En:   0.000D+00 0.000D+00 0.000D+00 0.100D+01
 Coeff:     -0.741D-03-0.158D-01 0.159D-01 0.100D+01
 Gap=     0.582 Goal=   None    Shift=    0.000
 RMSDP=1.72D-05 MaxDP=3.76D-04 DE=-3.60D-05 OVMax= 8.16D-04

 Cycle   5  Pass 1  IDiag  1:
 E= -460.111214669958     Delta-E=       -0.000004766740 Rises=F Damp=F
 DIIS: error= 1.11D-04 at cycle   5 NSaved=   5.
 NSaved= 5 IEnMin= 5 EnMin= -460.111214669958     IErMin= 5 ErrMin= 1.11D-04
 ErrMax= 1.11D-04  0.00D+00 EMaxC= 1.00D-01 BMatC= 3.40D-07 BMatP= 2.33D-06
 IDIUse=3 WtCom= 9.99D-01 WtEn= 1.11D-03
 Coeff-Com:  0.695D-03 0.386D-02-0.143D+00-0.645D-01 0.120D+01
 Coeff-En:   0.000D+00 0.000D+00 0.000D+00 0.000D+00 0.100D+01
 Coeff:      0.695D-03 0.386D-02-0.143D+00-0.644D-01 0.120D+01
 Gap=     0.582 Goal=   None    Shift=    0.000
 RMSDP=1.10D-05 MaxDP=3.20D-04 DE=-4.77D-06 OVMax= 6.98D-04

 Cycle   6  Pass 1  IDiag  1:
 E= -460.111215617530     Delta-E=       -0.000000947572 Rises=F Damp=F
 DIIS: error= 1.68D-05 at cycle   6 NSaved=   6.
 NSaved= 6 IEnMin= 6 EnMin= -460.111215617530     IErMin= 6 ErrMin= 1.68D-05
 ErrMax= 1.68D-05  0.00D+00 EMaxC= 1.00D-01 BMatC= 8.49D-09 BMatP= 3.40D-07
 IDIUse=1 WtCom= 1.00D+00 WtEn= 0.00D+00
 Coeff-Com: -0.132D-03-0.487D-03 0.330D-01-0.363D-01-0.221D+00 0.123D+01
 Coeff:     -0.132D-03-0.487D-03 0.330D-01-0.363D-01-0.221D+00 0.123D+01
 Gap=     0.582 Goal=   None    Shift=    0.000
 RMSDP=1.86D-06 MaxDP=4.02D-05 DE=-9.48D-07 OVMax= 7.37D-05

 Cycle   7  Pass 1  IDiag  1:
 E= -460.111215636853     Delta-E=       -0.000000019322 Rises=F Damp=F
 DIIS: error= 2.80D-06 at cycle   7 NSaved=   7.
 NSaved= 7 IEnMin= 7 EnMin= -460.111215636853     IErMin= 7 ErrMin= 2.80D-06
 ErrMax= 2.80D-06  0.00D+00 EMaxC= 1.00D-01 BMatC= 2.22D-10 BMatP= 8.49D-09
 IDIUse=1 WtCom= 1.00D+00 WtEn= 0.00D+00
 Coeff-Com: -0.363D-04-0.201D-03 0.754D-02-0.268D-02-0.583D-01 0.820D-01
 Coeff-Com:  0.972D+00
 Coeff:     -0.363D-04-0.201D-03 0.754D-02-0.268D-02-0.583D-01 0.820D-01
 Coeff:      0.972D+00
 Gap=     0.582 Goal=   None    Shift=    0.000
 RMSDP=3.07D-07 MaxDP=6.94D-06 DE=-1.93D-08 OVMax= 1.40D-05

 Cycle   8  Pass 1  IDiag  1:
 E= -460.111215637264     Delta-E=       -0.000000000411 Rises=F Damp=F
 DIIS: error= 4.29D-07 at cycle   8 NSaved=   8.
 NSaved= 8 IEnMin= 8 EnMin= -460.111215637264     IErMin= 8 ErrMin= 4.29D-07
 ErrMax= 4.29D-07  0.00D+00 EMaxC= 1.00D-01 BMatC= 6.86D-12 BMatP= 2.22D-10
 IDIUse=1 WtCom= 1.00D+00 WtEn= 0.00D+00
 Coeff-Com:  0.444D-05 0.166D-04-0.112D-02 0.148D-02 0.765D-02-0.493D-01
 Coeff-Com:  0.377D-01 0.100D+01
 Coeff:      0.444D-05 0.166D-04-0.112D-02 0.148D-02 0.765D-02-0.493D-01
 Coeff:      0.377D-01 0.100D+01
 Gap=     0.582 Goal=   None    Shift=    0.000
 RMSDP=3.20D-08 MaxDP=1.26D-06 DE=-4.11D-10 OVMax= 1.04D-06

 Cycle   9  Pass 1  IDiag  1:
 E= -460.111215637272     Delta-E=       -0.000000000008 Rises=F Damp=F
 DIIS: error= 4.45D-08 at cycle   9 NSaved=   9.
 NSaved= 9 IEnMin= 9 EnMin= -460.111215637272     IErMin= 9 ErrMin= 4.45D-08
 ErrMax= 4.45D-08  0.00D+00 EMaxC= 1.00D-01 BMatC= 8.66D-14 BMatP= 6.86D-12
 IDIUse=1 WtCom= 1.00D+00 WtEn= 0.00D+00
 Coeff-Com: -0.651D-06 0.121D-05 0.147D-03-0.195D-03-0.128D-02 0.104D-01
 Coeff-Com: -0.165D-01-0.248D+00 0.126D+01
 Coeff:     -0.651D-06 0.121D-05 0.147D-03-0.195D-03-0.128D-02 0.104D-01
 Coeff:     -0.165D-01-0.248D+00 0.126D+01
 Gap=     0.582 Goal=   None    Shift=    0.000
 RMSDP=6.60D-09 MaxDP=1.95D-07 DE=-7.96D-12 OVMax= 1.87D-07

 SCF Done:  E(RHF) =  -460.111215637     A.U. after    9 cycles
            NFock=  9  Conv=0.66D-08     -V/T= 2.0000
 KE= 4.601076448591D+02 PE=-1.109970425291D+03 EE= 1.826958686489D+02
 Leave Link  502 at Wed Sep 03 18:01:37 2025, MaxMem=   536870912 cpu:               1.0 elap:               0.7
 (Enter C:\G16W\l801.exe)
 Range of M.O.s used for correlation:     1    89
 NBasis=    89 NAE=     9 NBE=     9 NFC=     0 NFV=     0
 NROrb=     89 NOA=     9 NOB=     9 NVA=    80 NVB=    80

 **** Warning!!: The largest alpha MO coefficient is  0.12113223D+02

 Leave Link  801 at Wed Sep 03 18:01:37 2025, MaxMem=   536870912 cpu:               0.0 elap:               0.0
 (Enter C:\G16W\l1101.exe)
 Using compressed storage, NAtomX=     2.
 Will process      3 centers per pass.
 Leave Link 1101 at Wed Sep 03 18:01:37 2025, MaxMem=   536870912 cpu:               0.0 elap:               0.1
 (Enter C:\G16W\l1102.exe)
 Symmetrizing basis deriv contribution to polar:
 IMax=3 JMax=2 DiffMx= 0.00D+00
 Leave Link 1102 at Wed Sep 03 18:01:37 2025, MaxMem=   536870912 cpu:               0.0 elap:               0.0
 (Enter C:\G16W\l1110.exe)
 Forming Gx(P) for the SCF density, NAtomX=     2.
 Integral derivatives from FoFJK, PRISM(SPDF).
 Do as many integral derivatives as possible in FoFJK.
 G2DrvN: MDV=     536870628.
 G2DrvN: will do     3 centers at a time, making    1 passes.
 Calling FoFCou, ICntrl=  3107 FMM=F I1Cent=   0 AccDes= 0.00D+00.
 FoFJK:  IHMeth= 1 ICntrl=    3107 DoSepK=F KAlg= 0 I1Cent=           0 FoldK=F
 IRaf=         0 NMat=       1 IRICut=       1 DoRegI=T DoRafI=F ISym2E= 1 IDoP0=0 IntGTp=1.
 FoFCou: FMM=F IPFlag=           0 FMFlag=      100000 FMFlg1=           0
         NFxFlg=           0 DoJE=F BraDBF=F KetDBF=F FulRan=T
         wScrn=  0.000000 ICntrl=      3107 IOpCl=  0 I1Cent=           0 NGrid=           0
         NMat0=    1 NMatS0=      1 NMatT0=    0 NMatD0=    1 NMtDS0=    0 NMtDT0=    0
 Petite list used in FoFCou.
 End of G2Drv F.D. properties file   721 does not exist.
 End of G2Drv F.D. properties file   722 does not exist.
 End of G2Drv F.D. properties file   788 does not exist.
 Leave Link 1110 at Wed Sep 03 18:01:39 2025, MaxMem=   536870912 cpu:               2.0 elap:               1.6
 (Enter C:\G16W\l1002.exe)
 Minotr:  Closed shell wavefunction.
          IDoAtm=11
          Direct CPHF calculation.
          Differentiating once with respect to nuclear coordinates.
          Using symmetry in CPHF.
          Requested convergence is 1.0D-08 RMS, and 1.0D-07 maximum.
          Secondary convergence is 1.0D-12 RMS, and 1.0D-12 maximum.
          NewPWx=T KeepS1=F KeepF1=F KeepIn=T MapXYZ=F SortEE=F KeepMc=T.
 Keep R1 ints in memory in symmetry-blocked form, NReq=12598921.
 FoFCou: FMM=F IPFlag=           0 FMFlag=           0 FMFlg1=           0
         NFxFlg=           0 DoJE=F BraDBF=F KetDBF=F FulRan=T
         wScrn=  0.000000 ICntrl=       600 IOpCl=  0 I1Cent=           0 NGrid=           0
         NMat0=    1 NMatS0=   4005 NMatT0=    0 NMatD0=    1 NMtDS0=    0 NMtDT0=    0
 Petite list used in FoFCou.
          MDV=     536870912 using IRadAn=       1.
          Solving linear equations simultaneously, MaxMat=       0.
          There are     9 degrees of freedom in the 1st order CPHF.  IDoFFX=6 NUNeed=     0.
      3 vectors produced by pass  0 Test12= 8.00D-15 1.11D-08 XBig12= 1.43D-02 6.85D-02.
 AX will form     3 AO Fock derivatives at one time.
      3 vectors produced by pass  1 Test12= 8.00D-15 1.11D-08 XBig12= 1.00D-03 1.64D-02.
      3 vectors produced by pass  2 Test12= 8.00D-15 1.11D-08 XBig12= 3.22D-05 1.81D-03.
      3 vectors produced by pass  3 Test12= 8.00D-15 1.11D-08 XBig12= 5.88D-07 3.03D-04.
      3 vectors produced by pass  4 Test12= 8.00D-15 1.11D-08 XBig12= 3.89D-08 8.11D-05.
      3 vectors produced by pass  5 Test12= 8.00D-15 1.11D-08 XBig12= 3.59D-10 6.88D-06.
      3 vectors produced by pass  6 Test12= 8.00D-15 1.11D-08 XBig12= 4.00D-12 9.40D-07.
      3 vectors produced by pass  7 Test12= 8.00D-15 1.11D-08 XBig12= 9.21D-14 1.35D-07.
 InvSVY:  IOpt=1 It=  1 EMax= 2.22D-16
 Solved reduced A of dimension    24 with     3 vectors.
 End of Minotr F.D. properties file   721 does not exist.
 End of Minotr F.D. properties file   722 does not exist.
 End of Minotr F.D. properties file   788 does not exist.
 Leave Link 1002 at Wed Sep 03 18:01:39 2025, MaxMem=   536870912 cpu:               0.0 elap:               0.6
 (Enter C:\G16W\l601.exe)
 Copying SCF densities to generalized density rwf, IOpCl= 0 IROHF=0.

 **********************************************************************

            Population analysis using the SCF Density.

 **********************************************************************

 Orbital symmetries:
       Occupied  (SG) (SG) (SG) (PI) (PI) (SG) (SG) (PI) (PI)
       Virtual   (SG) (SG) (PI) (PI) (SG) (PI) (PI) (DLTA) (DLTA)
                 (SG) (SG) (PI) (PI) (SG) (SG) (PI) (PI) (DLTA)
                 (DLTA) (PHI) (PHI) (DLTA) (DLTA) (PI) (PI) (SG)
                 (SG) (PI) (PI) (SG) (DLTA) (DLTA) (PI) (PI) (SG)
                 (PI) (PI) (SG) (SG) (PHI) (PHI) (?A) (?A) (DLTA)
                 (DLTA) (PI) (PI) (SG) (DLTA) (DLTA) (PHI) (PHI)
                 (DLTA) (DLTA) (PI) (PI) (SG) (SG) (PI) (PI) (PI)
                 (PI) (PHI) (PHI) (SG) (DLTA) (DLTA) (SG) (PI)
                 (PI) (SG) (DLTA) (DLTA) (PI) (PI) (PI) (PI) (SG)
                 (SG) (SG)
 The electronic state is 1-SG.
 Alpha  occ. eigenvalues -- -104.84786 -10.57368  -8.04099  -8.03903  -8.03903
 Alpha  occ. eigenvalues --   -1.11657  -0.62512  -0.47662  -0.47662
 Alpha virt. eigenvalues --    0.10585   0.26461   0.35106   0.35106   0.35517
 Alpha virt. eigenvalues --    0.44907   0.44907   0.51702   0.51702   0.52025
 Alpha virt. eigenvalues --    0.74374   0.83667   0.83667   1.10119   1.27388
 Alpha virt. eigenvalues --    1.49711   1.49711   1.50800   1.50800   1.55713
 Alpha virt. eigenvalues --    1.55713   1.55879   1.55879   1.65381   1.65381
 Alpha virt. eigenvalues --    1.66474   1.74095   1.78557   1.78557   2.13646
 Alpha virt. eigenvalues --    2.33617   2.33617   2.46574   2.46574   2.61801
 Alpha virt. eigenvalues --    3.01039   3.01039   3.07149   3.56032   3.90106
 Alpha virt. eigenvalues --    3.90106   3.93883   3.93883   4.06631   4.06631
 Alpha virt. eigenvalues --    4.10573   4.10573   4.11271   4.12919   4.12919
 Alpha virt. eigenvalues --    4.29580   4.29580   4.33769   4.33769   4.37046
 Alpha virt. eigenvalues --    4.37046   4.70872   4.96728   4.97253   4.97253
 Alpha virt. eigenvalues --    5.94639   5.94639   6.09858   6.09858   6.38758
 Alpha virt. eigenvalues --    6.77020   6.77020   7.18292   7.37644   7.37644
 Alpha virt. eigenvalues --    8.07997   8.22514   8.22514   8.60405   8.60405
 Alpha virt. eigenvalues --    8.79799   8.79799   9.38404  11.25931  24.20462
     Molecular Orbital Coefficients:
                           1         2         3         4         5
                           O         O         O         O         O
     Eigenvalues --  -104.84786 -10.57368  -8.04099  -8.03903  -8.03903
   1 1   Cl 1S          1.00023   0.28117  -0.00109   0.00000   0.00000
   2        2S         -0.00495  -0.45138   0.00229   0.00000   0.00000
   3        3S         -0.00295   0.58094  -0.00255   0.00000   0.00000
   4        4S         -0.00101  -0.04455  -0.00158   0.00000   0.00000
   5        5S          0.00060   0.00926   0.00074   0.00000   0.00000
   6        6S          0.00005  -0.00059   0.00030   0.00000   0.00000
   7        7PX         0.00000   0.00000   0.00000   0.00000   0.96223
   8        7PY         0.00000   0.00000   0.00000   0.96223   0.00000
   9        7PZ        -0.00006   0.00340   0.96155   0.00000   0.00000
  10        8PX         0.00000   0.00000   0.00000   0.00000   0.10986
  11        8PY         0.00000   0.00000   0.00000   0.10986   0.00000
  12        8PZ         0.00001   0.00098   0.11152   0.00000   0.00000
  13        9PX         0.00000   0.00000   0.00000   0.00000   0.01024
  14        9PY         0.00000   0.00000   0.00000   0.01024   0.00000
  15        9PZ         0.00009   0.00036   0.01049   0.00000   0.00000
  16       10PX         0.00000   0.00000   0.00000   0.00000   0.00021
  17       10PY         0.00000   0.00000   0.00000   0.00021   0.00000
  18       10PZ        -0.00029  -0.00290  -0.00031   0.00000   0.00000
  19       11PX         0.00000   0.00000   0.00000   0.00000   0.00000
  20       11PY         0.00000   0.00000   0.00000   0.00000   0.00000
  21       11PZ        -0.00003  -0.00010  -0.00011   0.00000   0.00000
  22       12D 0        0.00013   0.00104   0.00028   0.00000   0.00000
  23       12D+1        0.00000   0.00000   0.00000   0.00000  -0.00006
  24       12D-1        0.00000   0.00000   0.00000  -0.00006   0.00000
  25       12D+2        0.00000   0.00000   0.00000   0.00000   0.00000
  26       12D-2        0.00000   0.00000   0.00000   0.00000   0.00000
  27       13D 0        0.00001   0.00098   0.00031   0.00000   0.00000
  28       13D+1        0.00000   0.00000   0.00000   0.00000   0.00055
  29       13D-1        0.00000   0.00000   0.00000   0.00055   0.00000
  30       13D+2        0.00000   0.00000   0.00000   0.00000   0.00000
  31       13D-2        0.00000   0.00000   0.00000   0.00000   0.00000
  32       14D 0       -0.00001  -0.00095  -0.00072   0.00000   0.00000
  33       14D+1        0.00000   0.00000   0.00000   0.00000  -0.00080
  34       14D-1        0.00000   0.00000   0.00000  -0.00080   0.00000
  35       14D+2        0.00000   0.00000   0.00000   0.00000   0.00000
  36       14D-2        0.00000   0.00000   0.00000   0.00000   0.00000
  37       15F 0       -0.00006  -0.00052  -0.00043   0.00000   0.00000
  38       15F+1        0.00000   0.00000   0.00000   0.00000  -0.00025
  39       15F-1        0.00000   0.00000   0.00000  -0.00025   0.00000
  40       15F+2        0.00000   0.00000   0.00000   0.00000   0.00000
  41       15F-2        0.00000   0.00000   0.00000   0.00000   0.00000
  42       15F+3        0.00000   0.00000   0.00000   0.00000   0.00000
  43       15F-3        0.00000   0.00000   0.00000   0.00000   0.00000
  44       16F 0        0.00002   0.00004   0.00048   0.00000   0.00000
  45       16F+1        0.00000   0.00000   0.00000   0.00000   0.00029
  46       16F-1        0.00000   0.00000   0.00000   0.00029   0.00000
  47       16F+2        0.00000   0.00000   0.00000   0.00000   0.00000
  48       16F-2        0.00000   0.00000   0.00000   0.00000   0.00000
  49       16F+3        0.00000   0.00000   0.00000   0.00000   0.00000
  50       16F-3        0.00000   0.00000   0.00000   0.00000   0.00000
  51       17G 0        0.00001   0.00013   0.00003   0.00000   0.00000
  52       17G+1        0.00000   0.00000   0.00000   0.00000   0.00003
  53       17G-1        0.00000   0.00000   0.00000   0.00003   0.00000
  54       17G+2        0.00000   0.00000   0.00000   0.00000   0.00000
  55       17G-2        0.00000   0.00000   0.00000   0.00000   0.00000
  56       17G+3        0.00000   0.00000   0.00000   0.00000   0.00000
  57       17G-3        0.00000   0.00000   0.00000   0.00000   0.00000
  58       17G+4        0.00000   0.00000   0.00000   0.00000   0.00000
  59       17G-4        0.00000   0.00000   0.00000   0.00000   0.00000
  60 2   H  1S          0.00000   0.00002  -0.00008   0.00000   0.00000
  61        2S         -0.00004  -0.00080  -0.00076   0.00000   0.00000
  62        3S         -0.00032  -0.00354  -0.00064   0.00000   0.00000
  63        4S          0.00001   0.00029  -0.00002   0.00000   0.00000
  64        5PX         0.00000   0.00000   0.00000   0.00000  -0.00001
  65        5PY         0.00000   0.00000   0.00000  -0.00001   0.00000
  66        5PZ        -0.00001   0.00006  -0.00015   0.00000   0.00000
  67        6PX         0.00000   0.00000   0.00000   0.00000   0.00014
  68        6PY         0.00000   0.00000   0.00000   0.00014   0.00000
  69        6PZ        -0.00001  -0.00073  -0.00029   0.00000   0.00000
  70        7PX         0.00000   0.00000   0.00000   0.00000   0.00009
  71        7PY         0.00000   0.00000   0.00000   0.00009   0.00000
  72        7PZ        -0.00013  -0.00154  -0.00017   0.00000   0.00000
  73        8D 0        0.00001  -0.00003  -0.00011   0.00000   0.00000
  74        8D+1        0.00000   0.00000   0.00000   0.00000   0.00002
  75        8D-1        0.00000   0.00000   0.00000   0.00002   0.00000
  76        8D+2        0.00000   0.00000   0.00000   0.00000   0.00000
  77        8D-2        0.00000   0.00000   0.00000   0.00000   0.00000
  78        9D 0        0.00001  -0.00024   0.00006   0.00000   0.00000
  79        9D+1        0.00000   0.00000   0.00000   0.00000   0.00013
  80        9D-1        0.00000   0.00000   0.00000   0.00013   0.00000
  81        9D+2        0.00000   0.00000   0.00000   0.00000   0.00000
  82        9D-2        0.00000   0.00000   0.00000   0.00000   0.00000
  83       10F 0        0.00002   0.00002   0.00009   0.00000   0.00000
  84       10F+1        0.00000   0.00000   0.00000   0.00000   0.00002
  85       10F-1        0.00000   0.00000   0.00000   0.00002   0.00000
  86       10F+2        0.00000   0.00000   0.00000   0.00000   0.00000
  87       10F-2        0.00000   0.00000   0.00000   0.00000   0.00000
  88       10F+3        0.00000   0.00000   0.00000   0.00000   0.00000
  89       10F-3        0.00000   0.00000   0.00000   0.00000   0.00000
                           6         7         8         9        10
                           O         O         O         O         V
     Eigenvalues --    -1.11657  -0.62512  -0.47662  -0.47662   0.10585
   1 1   Cl 1S          0.07983   0.02348   0.00000   0.00000  -0.02231
   2        2S         -0.14699  -0.04436   0.00000   0.00000   0.03701
   3        3S          0.42853   0.13202   0.00000   0.00000  -0.13434
   4        4S          0.24403   0.07958   0.00000   0.00000  -0.12973
   5        5S          0.62228   0.21478   0.00000   0.00000   0.05886
   6        6S          0.24921   0.20252   0.00000   0.00000  -1.89813
   7        7PX         0.00000   0.00000  -0.25165   0.00000   0.00000
   8        7PY         0.00000   0.00000   0.00000  -0.25165   0.00000
   9        7PZ         0.03042  -0.20849   0.00000   0.00000  -0.08472
  10        8PX         0.00000   0.00000   0.02830   0.00000   0.00000
  11        8PY         0.00000   0.00000   0.00000   0.02830   0.00000
  12        8PZ         0.00001   0.01863   0.00000   0.00000   0.01473
  13        9PX         0.00000   0.00000   0.37409   0.00000   0.00000
  14        9PY         0.00000   0.00000   0.00000   0.37409   0.00000
  15        9PZ        -0.03989   0.30433   0.00000   0.00000   0.09729
  16       10PX         0.00000   0.00000   0.49045   0.00000   0.00000
  17       10PY         0.00000   0.00000   0.00000   0.49045   0.00000
  18       10PZ        -0.03716   0.33058   0.00000   0.00000   0.52911
  19       11PX         0.00000   0.00000   0.24446   0.00000   0.00000
  20       11PY         0.00000   0.00000   0.00000   0.24446   0.00000
  21       11PZ        -0.00284   0.10709   0.00000   0.00000   1.08791
  22       12D 0        0.00554  -0.02438   0.00000   0.00000  -0.24516
  23       12D+1        0.00000   0.00000  -0.00919   0.00000   0.00000
  24       12D-1        0.00000   0.00000   0.00000  -0.00919   0.00000
  25       12D+2        0.00000   0.00000   0.00000   0.00000   0.00000
  26       12D-2        0.00000   0.00000   0.00000   0.00000   0.00000
  27       13D 0        0.01543  -0.03049   0.00000   0.00000   0.02795
  28       13D+1        0.00000   0.00000  -0.00421   0.00000   0.00000
  29       13D-1        0.00000   0.00000   0.00000  -0.00421   0.00000
  30       13D+2        0.00000   0.00000   0.00000   0.00000   0.00000
  31       13D-2        0.00000   0.00000   0.00000   0.00000   0.00000
  32       14D 0        0.00710  -0.02545   0.00000   0.00000   0.01175
  33       14D+1        0.00000   0.00000  -0.00373   0.00000   0.00000
  34       14D-1        0.00000   0.00000   0.00000  -0.00373   0.00000
  35       14D+2        0.00000   0.00000   0.00000   0.00000   0.00000
  36       14D-2        0.00000   0.00000   0.00000   0.00000   0.00000
  37       15F 0       -0.00480   0.00445   0.00000   0.00000   0.05557
  38       15F+1        0.00000   0.00000   0.00502   0.00000   0.00000
  39       15F-1        0.00000   0.00000   0.00000   0.00502   0.00000
  40       15F+2        0.00000   0.00000   0.00000   0.00000   0.00000
  41       15F-2        0.00000   0.00000   0.00000   0.00000   0.00000
  42       15F+3        0.00000   0.00000   0.00000   0.00000   0.00000
  43       15F-3        0.00000   0.00000   0.00000   0.00000   0.00000
  44       16F 0       -0.00352   0.00659   0.00000   0.00000  -0.00774
  45       16F+1        0.00000   0.00000   0.00223   0.00000   0.00000
  46       16F-1        0.00000   0.00000   0.00000   0.00223   0.00000
  47       16F+2        0.00000   0.00000   0.00000   0.00000   0.00000
  48       16F-2        0.00000   0.00000   0.00000   0.00000   0.00000
  49       16F+3        0.00000   0.00000   0.00000   0.00000   0.00000
  50       16F-3        0.00000   0.00000   0.00000   0.00000   0.00000
  51       17G 0        0.00129  -0.00062   0.00000   0.00000  -0.00369
  52       17G+1        0.00000   0.00000  -0.00025   0.00000   0.00000
  53       17G-1        0.00000   0.00000   0.00000  -0.00025   0.00000
  54       17G+2        0.00000   0.00000   0.00000   0.00000   0.00000
  55       17G-2        0.00000   0.00000   0.00000   0.00000   0.00000
  56       17G+3        0.00000   0.00000   0.00000   0.00000   0.00000
  57       17G-3        0.00000   0.00000   0.00000   0.00000   0.00000
  58       17G+4        0.00000   0.00000   0.00000   0.00000   0.00000
  59       17G-4        0.00000   0.00000   0.00000   0.00000   0.00000
  60 2   H  1S          0.03199  -0.05763   0.00000   0.00000   0.01425
  61        2S          0.08496  -0.15942   0.00000   0.00000   0.09303
  62        3S          0.07570  -0.26245   0.00000   0.00000   0.63660
  63        4S          0.00571  -0.04709   0.00000   0.00000   2.16484
  64        5PX         0.00000   0.00000   0.00258   0.00000   0.00000
  65        5PY         0.00000   0.00000   0.00000   0.00258   0.00000
  66        5PZ         0.00425  -0.00338   0.00000   0.00000   0.00183
  67        6PX         0.00000   0.00000   0.00806   0.00000   0.00000
  68        6PY         0.00000   0.00000   0.00000   0.00806   0.00000
  69        6PZ         0.01214  -0.02228   0.00000   0.00000  -0.02799
  70        7PX         0.00000   0.00000   0.02217   0.00000   0.00000
  71        7PY         0.00000   0.00000   0.00000   0.02217   0.00000
  72        7PZ         0.00917  -0.02788   0.00000   0.00000   0.39761
  73        8D 0        0.00151  -0.00163   0.00000   0.00000  -0.00393
  74        8D+1        0.00000   0.00000   0.00092   0.00000   0.00000
  75        8D-1        0.00000   0.00000   0.00000   0.00092   0.00000
  76        8D+2        0.00000   0.00000   0.00000   0.00000   0.00000
  77        8D-2        0.00000   0.00000   0.00000   0.00000   0.00000
  78        9D 0        0.00149  -0.00645   0.00000   0.00000   0.02815
  79        9D+1        0.00000   0.00000   0.00427   0.00000   0.00000
  80        9D-1        0.00000   0.00000   0.00000   0.00427   0.00000
  81        9D+2        0.00000   0.00000   0.00000   0.00000   0.00000
  82        9D-2        0.00000   0.00000   0.00000   0.00000   0.00000
  83       10F 0        0.00018  -0.00036   0.00000   0.00000  -0.00190
  84       10F+1        0.00000   0.00000   0.00075   0.00000   0.00000
  85       10F-1        0.00000   0.00000   0.00000   0.00075   0.00000
  86       10F+2        0.00000   0.00000   0.00000   0.00000   0.00000
  87       10F-2        0.00000   0.00000   0.00000   0.00000   0.00000
  88       10F+3        0.00000   0.00000   0.00000   0.00000   0.00000
  89       10F-3        0.00000   0.00000   0.00000   0.00000   0.00000
                          11        12        13        14        15
                           V         V         V         V         V
     Eigenvalues --     0.26461   0.35106   0.35106   0.35517   0.44907
   1 1   Cl 1S         -0.00566   0.00000   0.00000  -0.00699   0.00000
   2        2S          0.01684   0.00000   0.00000   0.03229   0.00000
   3        3S         -0.02262   0.00000   0.00000  -0.02100   0.00000
   4        4S          0.17451   0.00000   0.00000   0.21449   0.00000
   5        5S         -0.40133   0.00000   0.00000  -0.70946   0.00000
   6        6S         -1.07775   0.00000   0.00000  -1.16866   0.00000
   7        7PX         0.00000   0.00000   0.11860   0.00000   0.00000
   8        7PY         0.00000   0.11860   0.00000   0.00000   0.01518
   9        7PZ        -0.03487   0.00000   0.00000   0.14339   0.00000
  10        8PX         0.00000   0.00000  -0.09338   0.00000   0.00000
  11        8PY         0.00000  -0.09338   0.00000   0.00000  -0.00417
  12        8PZ        -0.03058   0.00000   0.00000  -0.06592   0.00000
  13        9PX         0.00000   0.00000   0.06493   0.00000   0.00000
  14        9PY         0.00000   0.06493   0.00000   0.00000  -0.01212
  15        9PZ         0.09021   0.00000   0.00000  -0.08877   0.00000
  16       10PX         0.00000   0.00000  -1.17357   0.00000   0.00000
  17       10PY         0.00000  -1.17357   0.00000   0.00000  -0.12806
  18       10PZ         0.67648   0.00000   0.00000  -0.29387   0.00000
  19       11PX         0.00000   0.00000   1.51849   0.00000   0.00000
  20       11PY         0.00000   1.51849   0.00000   0.00000  -0.18603
  21       11PZ         1.21068   0.00000   0.00000   1.88484   0.00000
  22       12D 0       -0.24440   0.00000   0.00000  -0.69673   0.00000
  23       12D+1        0.00000   0.00000  -0.04460   0.00000   0.00000
  24       12D-1        0.00000  -0.04460   0.00000   0.00000  -0.58836
  25       12D+2        0.00000   0.00000   0.00000   0.00000   0.00000
  26       12D-2        0.00000   0.00000   0.00000   0.00000   0.00000
  27       13D 0       -0.04744   0.00000   0.00000   0.00155   0.00000
  28       13D+1        0.00000   0.00000   0.02462   0.00000   0.00000
  29       13D-1        0.00000   0.02462   0.00000   0.00000   0.00668
  30       13D+2        0.00000   0.00000   0.00000   0.00000   0.00000
  31       13D-2        0.00000   0.00000   0.00000   0.00000   0.00000
  32       14D 0        0.08995   0.00000   0.00000  -0.05305   0.00000
  33       14D+1        0.00000   0.00000  -0.00604   0.00000   0.00000
  34       14D-1        0.00000  -0.00604   0.00000   0.00000  -0.14572
  35       14D+2        0.00000   0.00000   0.00000   0.00000   0.00000
  36       14D-2        0.00000   0.00000   0.00000   0.00000   0.00000
  37       15F 0        0.15248   0.00000   0.00000   0.09328   0.00000
  38       15F+1        0.00000   0.00000   0.00340   0.00000   0.00000
  39       15F-1        0.00000   0.00340   0.00000   0.00000  -0.05139
  40       15F+2        0.00000   0.00000   0.00000   0.00000   0.00000
  41       15F-2        0.00000   0.00000   0.00000   0.00000   0.00000
  42       15F+3        0.00000   0.00000   0.00000   0.00000   0.00000
  43       15F-3        0.00000   0.00000   0.00000   0.00000   0.00000
  44       16F 0       -0.00215   0.00000   0.00000  -0.00815   0.00000
  45       16F+1        0.00000   0.00000  -0.00620   0.00000   0.00000
  46       16F-1        0.00000  -0.00620   0.00000   0.00000   0.01245
  47       16F+2        0.00000   0.00000   0.00000   0.00000   0.00000
  48       16F-2        0.00000   0.00000   0.00000   0.00000   0.00000
  49       16F+3        0.00000   0.00000   0.00000   0.00000   0.00000
  50       16F-3        0.00000   0.00000   0.00000   0.00000   0.00000
  51       17G 0       -0.02375   0.00000   0.00000  -0.00226   0.00000
  52       17G+1        0.00000   0.00000   0.00420   0.00000   0.00000
  53       17G-1        0.00000   0.00420   0.00000   0.00000   0.00256
  54       17G+2        0.00000   0.00000   0.00000   0.00000   0.00000
  55       17G-2        0.00000   0.00000   0.00000   0.00000   0.00000
  56       17G+3        0.00000   0.00000   0.00000   0.00000   0.00000
  57       17G-3        0.00000   0.00000   0.00000   0.00000   0.00000
  58       17G+4        0.00000   0.00000   0.00000   0.00000   0.00000
  59       17G-4        0.00000   0.00000   0.00000   0.00000   0.00000
  60 2   H  1S          0.05684   0.00000   0.00000  -0.02903   0.00000
  61        2S          0.04700   0.00000   0.00000  -0.11297   0.00000
  62        3S          2.49949   0.00000   0.00000   0.99964   0.00000
  63        4S         -0.57541   0.00000   0.00000   1.28231   0.00000
  64        5PX         0.00000   0.00000  -0.00418   0.00000   0.00000
  65        5PY         0.00000  -0.00418   0.00000   0.00000   0.03383
  66        5PZ        -0.02891   0.00000   0.00000   0.01246   0.00000
  67        6PX         0.00000   0.00000   0.02133   0.00000   0.00000
  68        6PY         0.00000   0.02133   0.00000   0.00000  -0.09901
  69        6PZ         0.18656   0.00000   0.00000  -0.03684   0.00000
  70        7PX         0.00000   0.00000  -0.05515   0.00000   0.00000
  71        7PY         0.00000  -0.05515   0.00000   0.00000   0.59252
  72        7PZ         0.47520   0.00000   0.00000   0.87082   0.00000
  73        8D 0        0.00181   0.00000   0.00000  -0.00770   0.00000
  74        8D+1        0.00000   0.00000  -0.00091   0.00000   0.00000
  75        8D-1        0.00000  -0.00091   0.00000   0.00000   0.00064
  76        8D+2        0.00000   0.00000   0.00000   0.00000   0.00000
  77        8D-2        0.00000   0.00000   0.00000   0.00000   0.00000
  78        9D 0        0.11455   0.00000   0.00000   0.06858   0.00000
  79        9D+1        0.00000   0.00000   0.00999   0.00000   0.00000
  80        9D-1        0.00000   0.00999   0.00000   0.00000   0.02934
  81        9D+2        0.00000   0.00000   0.00000   0.00000   0.00000
  82        9D-2        0.00000   0.00000   0.00000   0.00000   0.00000
  83       10F 0        0.01515   0.00000   0.00000   0.00788   0.00000
  84       10F+1        0.00000   0.00000   0.00313   0.00000   0.00000
  85       10F-1        0.00000   0.00313   0.00000   0.00000   0.01295
  86       10F+2        0.00000   0.00000   0.00000   0.00000   0.00000
  87       10F-2        0.00000   0.00000   0.00000   0.00000   0.00000
  88       10F+3        0.00000   0.00000   0.00000   0.00000   0.00000
  89       10F-3        0.00000   0.00000   0.00000   0.00000   0.00000
                          16        17        18        19        20
                           V         V         V         V         V
     Eigenvalues --     0.44907   0.51702   0.51702   0.52025   0.74374
   1 1   Cl 1S          0.00000   0.00000   0.00000  -0.03741   0.00431
   2        2S          0.00000   0.00000   0.00000   0.10299  -0.00932
   3        3S          0.00000   0.00000   0.00000  -0.19417   0.02766
   4        4S          0.00000   0.00000   0.00000   0.02709   0.02603
   5        5S          0.00000   0.00000   0.00000  -1.93852   0.67461
   6        6S          0.00000   0.00000   0.00000   7.27827  -2.41260
   7        7PX         0.01518   0.00000   0.00000   0.00000   0.00000
   8        7PY         0.00000   0.00000   0.00000   0.00000   0.00000
   9        7PZ         0.00000   0.00000   0.00000  -0.05729  -0.02457
  10        8PX        -0.00417   0.00000   0.00000   0.00000   0.00000
  11        8PY         0.00000   0.00000   0.00000   0.00000   0.00000
  12        8PZ         0.00000   0.00000   0.00000  -0.02546   0.02080
  13        9PX        -0.01212   0.00000   0.00000   0.00000   0.00000
  14        9PY         0.00000   0.00000   0.00000   0.00000   0.00000
  15        9PZ         0.00000   0.00000   0.00000   0.37913  -0.12371
  16       10PX        -0.12806   0.00000   0.00000   0.00000   0.00000
  17       10PY         0.00000   0.00000   0.00000   0.00000   0.00000
  18       10PZ         0.00000   0.00000   0.00000  -2.70405   1.05836
  19       11PX        -0.18603   0.00000   0.00000   0.00000   0.00000
  20       11PY         0.00000   0.00000   0.00000   0.00000   0.00000
  21       11PZ         0.00000   0.00000   0.00000  -2.15825   1.22361
  22       12D 0        0.00000   0.00000   0.00000   1.54480  -1.77825
  23       12D+1       -0.58836   0.00000   0.00000   0.00000   0.00000
  24       12D-1        0.00000   0.00000   0.00000   0.00000   0.00000
  25       12D+2        0.00000   0.00000   0.96902   0.00000   0.00000
  26       12D-2        0.00000   0.96902   0.00000   0.00000   0.00000
  27       13D 0        0.00000   0.00000   0.00000   0.18229  -0.03175
  28       13D+1        0.00668   0.00000   0.00000   0.00000   0.00000
  29       13D-1        0.00000   0.00000   0.00000   0.00000   0.00000
  30       13D+2        0.00000   0.00000  -0.04473   0.00000   0.00000
  31       13D-2        0.00000  -0.04473   0.00000   0.00000   0.00000
  32       14D 0        0.00000   0.00000   0.00000  -0.04632  -0.14530
  33       14D+1       -0.14572   0.00000   0.00000   0.00000   0.00000
  34       14D-1        0.00000   0.00000   0.00000   0.00000   0.00000
  35       14D+2        0.00000   0.00000   0.17907   0.00000   0.00000
  36       14D-2        0.00000   0.17907   0.00000   0.00000   0.00000
  37       15F 0        0.00000   0.00000   0.00000  -0.42829   0.25140
  38       15F+1       -0.05139   0.00000   0.00000   0.00000   0.00000
  39       15F-1        0.00000   0.00000   0.00000   0.00000   0.00000
  40       15F+2        0.00000   0.00000  -0.01361   0.00000   0.00000
  41       15F-2        0.00000  -0.01361   0.00000   0.00000   0.00000
  42       15F+3        0.00000   0.00000   0.00000   0.00000   0.00000
  43       15F-3        0.00000   0.00000   0.00000   0.00000   0.00000
  44       16F 0        0.00000   0.00000   0.00000   0.01414  -0.01890
  45       16F+1        0.01245   0.00000   0.00000   0.00000   0.00000
  46       16F-1        0.00000   0.00000   0.00000   0.00000   0.00000
  47       16F+2        0.00000   0.00000   0.00086   0.00000   0.00000
  48       16F-2        0.00000   0.00086   0.00000   0.00000   0.00000
  49       16F+3        0.00000   0.00000   0.00000   0.00000   0.00000
  50       16F-3        0.00000   0.00000   0.00000   0.00000   0.00000
  51       17G 0        0.00000   0.00000   0.00000   0.05741  -0.05625
  52       17G+1        0.00256   0.00000   0.00000   0.00000   0.00000
  53       17G-1        0.00000   0.00000   0.00000   0.00000   0.00000
  54       17G+2        0.00000   0.00000   0.00421   0.00000   0.00000
  55       17G-2        0.00000   0.00421   0.00000   0.00000   0.00000
  56       17G+3        0.00000   0.00000   0.00000   0.00000   0.00000
  57       17G-3        0.00000   0.00000   0.00000   0.00000   0.00000
  58       17G+4        0.00000   0.00000   0.00000   0.00000   0.00000
  59       17G-4        0.00000   0.00000   0.00000   0.00000   0.00000
  60 2   H  1S          0.00000   0.00000   0.00000   0.03847   0.00716
  61        2S          0.00000   0.00000   0.00000   0.01296  -0.03055
  62        3S          0.00000   0.00000   0.00000  -4.37796   3.49726
  63        4S          0.00000   0.00000   0.00000  -2.67148  -0.23396
  64        5PX         0.03383   0.00000   0.00000   0.00000   0.00000
  65        5PY         0.00000   0.00000   0.00000   0.00000   0.00000
  66        5PZ         0.00000   0.00000   0.00000   0.01689  -0.05743
  67        6PX        -0.09901   0.00000   0.00000   0.00000   0.00000
  68        6PY         0.00000   0.00000   0.00000   0.00000   0.00000
  69        6PZ         0.00000   0.00000   0.00000  -0.21077   0.29573
  70        7PX         0.59252   0.00000   0.00000   0.00000   0.00000
  71        7PY         0.00000   0.00000   0.00000   0.00000   0.00000
  72        7PZ         0.00000   0.00000   0.00000  -2.45044   0.00228
  73        8D 0        0.00000   0.00000   0.00000   0.01216   0.00556
  74        8D+1        0.00064   0.00000   0.00000   0.00000   0.00000
  75        8D-1        0.00000   0.00000   0.00000   0.00000   0.00000
  76        8D+2        0.00000   0.00000  -0.00016   0.00000   0.00000
  77        8D-2        0.00000  -0.00016   0.00000   0.00000   0.00000
  78        9D 0        0.00000   0.00000   0.00000  -0.25606   0.02641
  79        9D+1        0.02934   0.00000   0.00000   0.00000   0.00000
  80        9D-1        0.00000   0.00000   0.00000   0.00000   0.00000
  81        9D+2        0.00000   0.00000   0.00470   0.00000   0.00000
  82        9D-2        0.00000   0.00470   0.00000   0.00000   0.00000
  83       10F 0        0.00000   0.00000   0.00000  -0.00551  -0.01018
  84       10F+1        0.01295   0.00000   0.00000   0.00000   0.00000
  85       10F-1        0.00000   0.00000   0.00000   0.00000   0.00000
  86       10F+2        0.00000   0.00000  -0.00125   0.00000   0.00000
  87       10F-2        0.00000  -0.00125   0.00000   0.00000   0.00000
  88       10F+3        0.00000   0.00000   0.00000   0.00000   0.00000
  89       10F-3        0.00000   0.00000   0.00000   0.00000   0.00000
                          21        22        23        24        25
                           V         V         V         V         V
     Eigenvalues --     0.83667   0.83667   1.10119   1.27388   1.49711
   1 1   Cl 1S          0.00000   0.00000  -0.00961  -0.00017   0.00000
   2        2S          0.00000   0.00000   0.07187   0.02088   0.00000
   3        3S          0.00000   0.00000   0.01083   0.03839   0.00000
   4        4S          0.00000   0.00000   1.24871   1.01013   0.00000
   5        5S          0.00000   0.00000  -3.26615  -2.80368   0.00000
   6        6S          0.00000   0.00000  -8.60350  -2.98652   0.00000
   7        7PX         0.00000   0.02169   0.00000   0.00000   0.00466
   8        7PY         0.02169   0.00000   0.00000   0.00000   0.00000
   9        7PZ         0.00000   0.00000  -0.15204  -0.05508   0.00000
  10        8PX         0.00000  -0.01321   0.00000   0.00000   0.01428
  11        8PY        -0.01321   0.00000   0.00000   0.00000   0.00000
  12        8PZ         0.00000   0.00000   0.01752  -0.14633   0.00000
  13        9PX         0.00000   0.02487   0.00000   0.00000  -0.07399
  14        9PY         0.02487   0.00000   0.00000   0.00000   0.00000
  15        9PZ         0.00000   0.00000  -0.02085   0.34191   0.00000
  16       10PX         0.00000  -0.44135   0.00000   0.00000   0.17891
  17       10PY        -0.44135   0.00000   0.00000   0.00000   0.00000
  18       10PZ         0.00000   0.00000   7.10453   3.38581   0.00000
  19       11PX         0.00000  -0.51486   0.00000   0.00000  -0.06363
  20       11PY        -0.51486   0.00000   0.00000   0.00000   0.00000
  21       11PZ         0.00000   0.00000   2.43840   0.90457   0.00000
  22       12D 0        0.00000   0.00000  -3.76802  -0.91556   0.00000
  23       12D+1        0.00000   1.31652   0.00000   0.00000  -0.97337
  24       12D-1        1.31652   0.00000   0.00000   0.00000   0.00000
  25       12D+2        0.00000   0.00000   0.00000   0.00000   0.00000
  26       12D-2        0.00000   0.00000   0.00000   0.00000   0.00000
  27       13D 0        0.00000   0.00000  -0.39454  -1.10633   0.00000
  28       13D+1        0.00000  -0.01284   0.00000   0.00000   1.03091
  29       13D-1       -0.01284   0.00000   0.00000   0.00000   0.00000
  30       13D+2        0.00000   0.00000   0.00000   0.00000   0.00000
  31       13D-2        0.00000   0.00000   0.00000   0.00000   0.00000
  32       14D 0        0.00000   0.00000   0.03621   0.07459   0.00000
  33       14D+1        0.00000   0.11461   0.00000   0.00000   0.13513
  34       14D-1        0.11461   0.00000   0.00000   0.00000   0.00000
  35       14D+2        0.00000   0.00000   0.00000   0.00000   0.00000
  36       14D-2        0.00000   0.00000   0.00000   0.00000   0.00000
  37       15F 0        0.00000   0.00000   0.61526   0.80004   0.00000
  38       15F+1        0.00000  -0.17596   0.00000   0.00000  -0.34645
  39       15F-1       -0.17596   0.00000   0.00000   0.00000   0.00000
  40       15F+2        0.00000   0.00000   0.00000   0.00000   0.00000
  41       15F-2        0.00000   0.00000   0.00000   0.00000   0.00000
  42       15F+3        0.00000   0.00000   0.00000   0.00000   0.00000
  43       15F-3        0.00000   0.00000   0.00000   0.00000   0.00000
  44       16F 0        0.00000   0.00000   0.02760   0.08397   0.00000
  45       16F+1        0.00000   0.02420   0.00000   0.00000   0.02203
  46       16F-1        0.02420   0.00000   0.00000   0.00000   0.00000
  47       16F+2        0.00000   0.00000   0.00000   0.00000   0.00000
  48       16F-2        0.00000   0.00000   0.00000   0.00000   0.00000
  49       16F+3        0.00000   0.00000   0.00000   0.00000   0.00000
  50       16F-3        0.00000   0.00000   0.00000   0.00000   0.00000
  51       17G 0        0.00000   0.00000  -0.08154  -0.09693   0.00000
  52       17G+1        0.00000   0.04620   0.00000   0.00000  -0.01916
  53       17G-1        0.04620   0.00000   0.00000   0.00000   0.00000
  54       17G+2        0.00000   0.00000   0.00000   0.00000   0.00000
  55       17G-2        0.00000   0.00000   0.00000   0.00000   0.00000
  56       17G+3        0.00000   0.00000   0.00000   0.00000   0.00000
  57       17G-3        0.00000   0.00000   0.00000   0.00000   0.00000
  58       17G+4        0.00000   0.00000   0.00000   0.00000   0.00000
  59       17G-4        0.00000   0.00000   0.00000   0.00000   0.00000
  60 2   H  1S          0.00000   0.00000   0.02275  -0.05676   0.00000
  61        2S          0.00000   0.00000  -0.05954  -1.13725   0.00000
  62        3S          0.00000   0.00000  11.30765   7.03658   0.00000
  63        4S          0.00000   0.00000   2.11253  -0.16339   0.00000
  64        5PX         0.00000   0.05661   0.00000   0.00000   0.04017
  65        5PY         0.05661   0.00000   0.00000   0.00000   0.00000
  66        5PZ         0.00000   0.00000  -0.02538  -0.11583   0.00000
  67        6PX         0.00000  -0.23837   0.00000   0.00000  -0.27366
  68        6PY        -0.23837   0.00000   0.00000   0.00000   0.00000
  69        6PZ         0.00000   0.00000   0.21029   0.60043   0.00000
  70        7PX         0.00000   1.88226   0.00000   0.00000   0.05507
  71        7PY         1.88226   0.00000   0.00000   0.00000   0.00000
  72        7PZ         0.00000   0.00000   6.50441   2.87654   0.00000
  73        8D 0        0.00000   0.00000  -0.03991  -0.01609   0.00000
  74        8D+1        0.00000  -0.01785   0.00000   0.00000   0.01580
  75        8D-1       -0.01785   0.00000   0.00000   0.00000   0.00000
  76        8D+2        0.00000   0.00000   0.00000   0.00000   0.00000
  77        8D-2        0.00000   0.00000   0.00000   0.00000   0.00000
  78        9D 0        0.00000   0.00000   0.66441   0.62820   0.00000
  79        9D+1        0.00000   0.16249   0.00000   0.00000  -0.13322
  80        9D-1        0.16249   0.00000   0.00000   0.00000   0.00000
  81        9D+2        0.00000   0.00000   0.00000   0.00000   0.00000
  82        9D-2        0.00000   0.00000   0.00000   0.00000   0.00000
  83       10F 0        0.00000   0.00000   0.05504   0.09449   0.00000
  84       10F+1        0.00000   0.02280   0.00000   0.00000   0.01542
  85       10F-1        0.02280   0.00000   0.00000   0.00000   0.00000
  86       10F+2        0.00000   0.00000   0.00000   0.00000   0.00000
  87       10F-2        0.00000   0.00000   0.00000   0.00000   0.00000
  88       10F+3        0.00000   0.00000   0.00000   0.00000   0.00000
  89       10F-3        0.00000   0.00000   0.00000   0.00000   0.00000
                          26        27        28        29        30
                           V         V         V         V         V
     Eigenvalues --     1.49711   1.50800   1.50800   1.55713   1.55713
   1 1   Cl 1S          0.00000   0.00000   0.00000   0.00000   0.00000
   2        2S          0.00000   0.00000   0.00000   0.00000   0.00000
   3        3S          0.00000   0.00000   0.00000   0.00000   0.00000
   4        4S          0.00000   0.00000   0.00000   0.00000   0.00000
   5        5S          0.00000   0.00000   0.00000   0.00000   0.00000
   6        6S          0.00000   0.00000   0.00000   0.00000   0.00000
   7        7PX         0.00000   0.00000   0.00000   0.00000   0.00000
   8        7PY         0.00466   0.00000   0.00000   0.00000   0.00000
   9        7PZ         0.00000   0.00000   0.00000   0.00000   0.00000
  10        8PX         0.00000   0.00000   0.00000   0.00000   0.00000
  11        8PY         0.01428   0.00000   0.00000   0.00000   0.00000
  12        8PZ         0.00000   0.00000   0.00000   0.00000   0.00000
  13        9PX         0.00000   0.00000   0.00000   0.00000   0.00000
  14        9PY        -0.07399   0.00000   0.00000   0.00000   0.00000
  15        9PZ         0.00000   0.00000   0.00000   0.00000   0.00000
  16       10PX         0.00000   0.00000   0.00000   0.00000   0.00000
  17       10PY         0.17891   0.00000   0.00000   0.00000   0.00000
  18       10PZ         0.00000   0.00000   0.00000   0.00000   0.00000
  19       11PX         0.00000   0.00000   0.00000   0.00000   0.00000
  20       11PY        -0.06363   0.00000   0.00000   0.00000   0.00000
  21       11PZ         0.00000   0.00000   0.00000   0.00000   0.00000
  22       12D 0        0.00000   0.00000   0.00000   0.00000   0.00000
  23       12D+1        0.00000   0.00000   0.00000   0.00000   0.00000
  24       12D-1       -0.97337   0.00000   0.00000   0.00000   0.00000
  25       12D+2        0.00000   0.00000   0.08561   0.00000   0.00000
  26       12D-2        0.00000   0.08561   0.00000   0.00000   0.00000
  27       13D 0        0.00000   0.00000   0.00000   0.00000   0.00000
  28       13D+1        0.00000   0.00000   0.00000   0.00000   0.00000
  29       13D-1        1.03091   0.00000   0.00000   0.00000   0.00000
  30       13D+2        0.00000   0.00000  -0.03480   0.00000   0.00000
  31       13D-2        0.00000  -0.03480   0.00000   0.00000   0.00000
  32       14D 0        0.00000   0.00000   0.00000   0.00000   0.00000
  33       14D+1        0.00000   0.00000   0.00000   0.00000   0.00000
  34       14D-1        0.13513   0.00000   0.00000   0.00000   0.00000
  35       14D+2        0.00000   0.00000   0.00498   0.00000   0.00000
  36       14D-2        0.00000   0.00498   0.00000   0.00000   0.00000
  37       15F 0        0.00000   0.00000   0.00000   0.00000   0.00000
  38       15F+1        0.00000   0.00000   0.00000   0.00000   0.00000
  39       15F-1       -0.34645   0.00000   0.00000   0.00000   0.00000
  40       15F+2        0.00000   0.00000   0.96481   0.00000   0.00000
  41       15F-2        0.00000   0.96481   0.00000   0.00000   0.00000
  42       15F+3        0.00000   0.00000   0.00000   0.00000   1.06159
  43       15F-3        0.00000   0.00000   0.00000   1.06159   0.00000
  44       16F 0        0.00000   0.00000   0.00000   0.00000   0.00000
  45       16F+1        0.00000   0.00000   0.00000   0.00000   0.00000
  46       16F-1        0.02203   0.00000   0.00000   0.00000   0.00000
  47       16F+2        0.00000   0.00000  -0.09485   0.00000   0.00000
  48       16F-2        0.00000  -0.09485   0.00000   0.00000   0.00000
  49       16F+3        0.00000   0.00000   0.00000   0.00000  -0.10609
  50       16F-3        0.00000   0.00000   0.00000  -0.10609   0.00000
  51       17G 0        0.00000   0.00000   0.00000   0.00000   0.00000
  52       17G+1        0.00000   0.00000   0.00000   0.00000   0.00000
  53       17G-1       -0.01916   0.00000   0.00000   0.00000   0.00000
  54       17G+2        0.00000   0.00000  -0.00066   0.00000   0.00000
  55       17G-2        0.00000  -0.00066   0.00000   0.00000   0.00000
  56       17G+3        0.00000   0.00000   0.00000   0.00000  -0.00431
  57       17G-3        0.00000   0.00000   0.00000  -0.00431   0.00000
  58       17G+4        0.00000   0.00000   0.00000   0.00000   0.00000
  59       17G-4        0.00000   0.00000   0.00000   0.00000   0.00000
  60 2   H  1S          0.00000   0.00000   0.00000   0.00000   0.00000
  61        2S          0.00000   0.00000   0.00000   0.00000   0.00000
  62        3S          0.00000   0.00000   0.00000   0.00000   0.00000
  63        4S          0.00000   0.00000   0.00000   0.00000   0.00000
  64        5PX         0.00000   0.00000   0.00000   0.00000   0.00000
  65        5PY         0.04017   0.00000   0.00000   0.00000   0.00000
  66        5PZ         0.00000   0.00000   0.00000   0.00000   0.00000
  67        6PX         0.00000   0.00000   0.00000   0.00000   0.00000
  68        6PY        -0.27366   0.00000   0.00000   0.00000   0.00000
  69        6PZ         0.00000   0.00000   0.00000   0.00000   0.00000
  70        7PX         0.00000   0.00000   0.00000   0.00000   0.00000
  71        7PY         0.05507   0.00000   0.00000   0.00000   0.00000
  72        7PZ         0.00000   0.00000   0.00000   0.00000   0.00000
  73        8D 0        0.00000   0.00000   0.00000   0.00000   0.00000
  74        8D+1        0.00000   0.00000   0.00000   0.00000   0.00000
  75        8D-1        0.01580   0.00000   0.00000   0.00000   0.00000
  76        8D+2        0.00000   0.00000   0.03272   0.00000   0.00000
  77        8D-2        0.00000   0.03272   0.00000   0.00000   0.00000
  78        9D 0        0.00000   0.00000   0.00000   0.00000   0.00000
  79        9D+1        0.00000   0.00000   0.00000   0.00000   0.00000
  80        9D-1       -0.13322   0.00000   0.00000   0.00000   0.00000
  81        9D+2        0.00000   0.00000  -0.20877   0.00000   0.00000
  82        9D-2        0.00000  -0.20877   0.00000   0.00000   0.00000
  83       10F 0        0.00000   0.00000   0.00000   0.00000   0.00000
  84       10F+1        0.00000   0.00000   0.00000   0.00000   0.00000
  85       10F-1        0.01542   0.00000   0.00000   0.00000   0.00000
  86       10F+2        0.00000   0.00000   0.01954   0.00000   0.00000
  87       10F-2        0.00000   0.01954   0.00000   0.00000   0.00000
  88       10F+3        0.00000   0.00000   0.00000   0.00000   0.00270
  89       10F-3        0.00000   0.00000   0.00000   0.00270   0.00000
                          31        32        33        34        35
                           V         V         V         V         V
     Eigenvalues --     1.55879   1.55879   1.65381   1.65381   1.66474
   1 1   Cl 1S          0.00000   0.00000   0.00000   0.00000   0.00688
   2        2S          0.00000   0.00000   0.00000   0.00000   0.02917
   3        3S          0.00000   0.00000   0.00000   0.00000   0.09602
   4        4S          0.00000   0.00000   0.00000   0.00000   0.68388
   5        5S          0.00000   0.00000   0.00000   0.00000  -0.84283
   6        6S          0.00000   0.00000   0.00000   0.00000  -3.18750
   7        7PX         0.00000   0.00000   0.00000   0.39386   0.00000
   8        7PY         0.00000   0.00000   0.39386   0.00000   0.00000
   9        7PZ         0.00000   0.00000   0.00000   0.00000  -0.01117
  10        8PX         0.00000   0.00000   0.00000   0.24317   0.00000
  11        8PY         0.00000   0.00000   0.24317   0.00000   0.00000
  12        8PZ         0.00000   0.00000   0.00000   0.00000   0.01185
  13        9PX         0.00000   0.00000   0.00000  -2.15066   0.00000
  14        9PY         0.00000   0.00000  -2.15066   0.00000   0.00000
  15        9PZ         0.00000   0.00000   0.00000   0.00000  -0.31875
  16       10PX         0.00000   0.00000   0.00000   2.45829   0.00000
  17       10PY         0.00000   0.00000   2.45829   0.00000   0.00000
  18       10PZ         0.00000   0.00000   0.00000   0.00000   2.70972
  19       11PX         0.00000   0.00000   0.00000  -0.91463   0.00000
  20       11PY         0.00000   0.00000  -0.91463   0.00000   0.00000
  21       11PZ         0.00000   0.00000   0.00000   0.00000   1.23722
  22       12D 0        0.00000   0.00000   0.00000   0.00000  -2.69599
  23       12D+1        0.00000   0.00000   0.00000   0.07550   0.00000
  24       12D-1        0.00000   0.00000   0.07550   0.00000   0.00000
  25       12D+2        0.00000  -1.02843   0.00000   0.00000   0.00000
  26       12D-2       -1.02843   0.00000   0.00000   0.00000   0.00000
  27       13D 0        0.00000   0.00000   0.00000   0.00000   0.83229
  28       13D+1        0.00000   0.00000   0.00000  -0.16308   0.00000
  29       13D-1        0.00000   0.00000  -0.16308   0.00000   0.00000
  30       13D+2        0.00000   1.23072   0.00000   0.00000   0.00000
  31       13D-2        1.23072   0.00000   0.00000   0.00000   0.00000
  32       14D 0        0.00000   0.00000   0.00000   0.00000   0.25815
  33       14D+1        0.00000   0.00000   0.00000  -0.00222   0.00000
  34       14D-1        0.00000   0.00000  -0.00222   0.00000   0.00000
  35       14D+2        0.00000   0.16308   0.00000   0.00000   0.00000
  36       14D-2        0.16308   0.00000   0.00000   0.00000   0.00000
  37       15F 0        0.00000   0.00000   0.00000   0.00000   0.86252
  38       15F+1        0.00000   0.00000   0.00000  -0.12329   0.00000
  39       15F-1        0.00000   0.00000  -0.12329   0.00000   0.00000
  40       15F+2        0.00000   0.03184   0.00000   0.00000   0.00000
  41       15F-2        0.03184   0.00000   0.00000   0.00000   0.00000
  42       15F+3        0.00000   0.00000   0.00000   0.00000   0.00000
  43       15F-3        0.00000   0.00000   0.00000   0.00000   0.00000
  44       16F 0        0.00000   0.00000   0.00000   0.00000  -0.03369
  45       16F+1        0.00000   0.00000   0.00000   0.01443   0.00000
  46       16F-1        0.00000   0.00000   0.01443   0.00000   0.00000
  47       16F+2        0.00000  -0.00877   0.00000   0.00000   0.00000
  48       16F-2       -0.00877   0.00000   0.00000   0.00000   0.00000
  49       16F+3        0.00000   0.00000   0.00000   0.00000   0.00000
  50       16F-3        0.00000   0.00000   0.00000   0.00000   0.00000
  51       17G 0        0.00000   0.00000   0.00000   0.00000  -0.13238
  52       17G+1        0.00000   0.00000   0.00000  -0.02074   0.00000
  53       17G-1        0.00000   0.00000  -0.02074   0.00000   0.00000
  54       17G+2        0.00000   0.00007   0.00000   0.00000   0.00000
  55       17G-2        0.00007   0.00000   0.00000   0.00000   0.00000
  56       17G+3        0.00000   0.00000   0.00000   0.00000   0.00000
  57       17G-3        0.00000   0.00000   0.00000   0.00000   0.00000
  58       17G+4        0.00000   0.00000   0.00000   0.00000   0.00000
  59       17G-4        0.00000   0.00000   0.00000   0.00000   0.00000
  60 2   H  1S          0.00000   0.00000   0.00000   0.00000  -0.06818
  61        2S          0.00000   0.00000   0.00000   0.00000  -0.16454
  62        3S          0.00000   0.00000   0.00000   0.00000   5.26657
  63        4S          0.00000   0.00000   0.00000   0.00000   0.08780
  64        5PX         0.00000   0.00000   0.00000   0.00083   0.00000
  65        5PY         0.00000   0.00000   0.00083   0.00000   0.00000
  66        5PZ         0.00000   0.00000   0.00000   0.00000  -0.08468
  67        6PX         0.00000   0.00000   0.00000   0.00700   0.00000
  68        6PY         0.00000   0.00000   0.00700   0.00000   0.00000
  69        6PZ         0.00000   0.00000   0.00000   0.00000   0.80864
  70        7PX         0.00000   0.00000   0.00000  -0.06502   0.00000
  71        7PY         0.00000   0.00000  -0.06502   0.00000   0.00000
  72        7PZ         0.00000   0.00000   0.00000   0.00000   1.09624
  73        8D 0        0.00000   0.00000   0.00000   0.00000   0.02240
  74        8D+1        0.00000   0.00000   0.00000   0.00404   0.00000
  75        8D-1        0.00000   0.00000   0.00404   0.00000   0.00000
  76        8D+2        0.00000   0.00034   0.00000   0.00000   0.00000
  77        8D-2        0.00034   0.00000   0.00000   0.00000   0.00000
  78        9D 0        0.00000   0.00000   0.00000   0.00000   0.09021
  79        9D+1        0.00000   0.00000   0.00000  -0.07524   0.00000
  80        9D-1        0.00000   0.00000  -0.07524   0.00000   0.00000
  81        9D+2        0.00000   0.01363   0.00000   0.00000   0.00000
  82        9D-2        0.01363   0.00000   0.00000   0.00000   0.00000
  83       10F 0        0.00000   0.00000   0.00000   0.00000  -0.02617
  84       10F+1        0.00000   0.00000   0.00000  -0.01778   0.00000
  85       10F-1        0.00000   0.00000  -0.01778   0.00000   0.00000
  86       10F+2        0.00000   0.00998   0.00000   0.00000   0.00000
  87       10F-2        0.00998   0.00000   0.00000   0.00000   0.00000
  88       10F+3        0.00000   0.00000   0.00000   0.00000   0.00000
  89       10F-3        0.00000   0.00000   0.00000   0.00000   0.00000
                          36        37        38        39        40
                           V         V         V         V         V
     Eigenvalues --     1.74095   1.78557   1.78557   2.13646   2.33617
   1 1   Cl 1S         -0.02164   0.00000   0.00000   0.07437   0.00000
   2        2S          0.04518   0.00000   0.00000  -0.05760   0.00000
   3        3S         -0.12909   0.00000   0.00000   0.60688   0.00000
   4        4S          0.53073   0.00000   0.00000   1.44326   0.00000
   5        5S         -2.18177   0.00000   0.00000  -1.38240   0.00000
   6        6S         -3.90801   0.00000   0.00000   5.56960   0.00000
   7        7PX         0.00000  -0.07256   0.00000   0.00000   0.00000
   8        7PY         0.00000   0.00000  -0.07256   0.00000   0.00000
   9        7PZ         0.30231   0.00000   0.00000  -0.15566   0.00000
  10        8PX         0.00000  -0.04760   0.00000   0.00000   0.00000
  11        8PY         0.00000   0.00000  -0.04760   0.00000   0.00000
  12        8PZ         0.15711   0.00000   0.00000  -0.18953   0.00000
  13        9PX         0.00000   0.49674   0.00000   0.00000   0.00000
  14        9PY         0.00000   0.00000   0.49674   0.00000   0.00000
  15        9PZ        -1.93306   0.00000   0.00000   1.54632   0.00000
  16       10PX         0.00000  -1.02128   0.00000   0.00000   0.00000
  17       10PY         0.00000   0.00000  -1.02128   0.00000   0.00000
  18       10PZ         6.35230   0.00000   0.00000  -5.02840   0.00000
  19       11PX         0.00000  -0.18191   0.00000   0.00000   0.00000
  20       11PY         0.00000   0.00000  -0.18191   0.00000   0.00000
  21       11PZ         0.15269   0.00000   0.00000  -1.06012   0.00000
  22       12D 0       -1.81292   0.00000   0.00000   2.56231   0.00000
  23       12D+1        0.00000   1.43144   0.00000   0.00000   0.00000
  24       12D-1        0.00000   0.00000   1.43144   0.00000   0.00000
  25       12D+2        0.00000   0.00000   0.00000   0.00000   0.00000
  26       12D-2        0.00000   0.00000   0.00000   0.00000  -0.28215
  27       13D 0       -0.59095   0.00000   0.00000   0.16763   0.00000
  28       13D+1        0.00000  -0.49878   0.00000   0.00000   0.00000
  29       13D-1        0.00000   0.00000  -0.49878   0.00000   0.00000
  30       13D+2        0.00000   0.00000   0.00000   0.00000   0.00000
  31       13D-2        0.00000   0.00000   0.00000   0.00000   0.02824
  32       14D 0        0.12045   0.00000   0.00000  -0.00539   0.00000
  33       14D+1        0.00000  -0.11404   0.00000   0.00000   0.00000
  34       14D-1        0.00000   0.00000  -0.11404   0.00000   0.00000
  35       14D+2        0.00000   0.00000   0.00000   0.00000   0.00000
  36       14D-2        0.00000   0.00000   0.00000   0.00000  -0.01834
  37       15F 0        0.03064   0.00000   0.00000  -1.62257   0.00000
  38       15F+1        0.00000  -1.40500   0.00000   0.00000   0.00000
  39       15F-1        0.00000   0.00000  -1.40500   0.00000   0.00000
  40       15F+2        0.00000   0.00000   0.00000   0.00000   0.00000
  41       15F-2        0.00000   0.00000   0.00000   0.00000   0.64594
  42       15F+3        0.00000   0.00000   0.00000   0.00000   0.00000
  43       15F-3        0.00000   0.00000   0.00000   0.00000   0.00000
  44       16F 0        0.10072   0.00000   0.00000   0.12115   0.00000
  45       16F+1        0.00000   0.08596   0.00000   0.00000   0.00000
  46       16F-1        0.00000   0.00000   0.08596   0.00000   0.00000
  47       16F+2        0.00000   0.00000   0.00000   0.00000   0.00000
  48       16F-2        0.00000   0.00000   0.00000   0.00000  -0.04297
  49       16F+3        0.00000   0.00000   0.00000   0.00000   0.00000
  50       16F-3        0.00000   0.00000   0.00000   0.00000   0.00000
  51       17G 0       -0.12551   0.00000   0.00000   0.06833   0.00000
  52       17G+1        0.00000   0.09359   0.00000   0.00000   0.00000
  53       17G-1        0.00000   0.00000   0.09359   0.00000   0.00000
  54       17G+2        0.00000   0.00000   0.00000   0.00000   0.00000
  55       17G-2        0.00000   0.00000   0.00000   0.00000   0.05190
  56       17G+3        0.00000   0.00000   0.00000   0.00000   0.00000
  57       17G-3        0.00000   0.00000   0.00000   0.00000   0.00000
  58       17G+4        0.00000   0.00000   0.00000   0.00000   0.00000
  59       17G-4        0.00000   0.00000   0.00000   0.00000   0.00000
  60 2   H  1S         -0.03852   0.00000   0.00000   0.02613   0.00000
  61        2S         -0.61092   0.00000   0.00000  -1.60879   0.00000
  62        3S          7.24405   0.00000   0.00000  -4.89044   0.00000
  63        4S          0.13335   0.00000   0.00000  -1.19580   0.00000
  64        5PX         0.00000  -0.00351   0.00000   0.00000   0.00000
  65        5PY         0.00000   0.00000  -0.00351   0.00000   0.00000
  66        5PZ        -0.09980   0.00000   0.00000   0.02012   0.00000
  67        6PX         0.00000  -0.05068   0.00000   0.00000   0.00000
  68        6PY         0.00000   0.00000  -0.05068   0.00000   0.00000
  69        6PZ         0.71172   0.00000   0.00000  -0.41633   0.00000
  70        7PX         0.00000   1.54566   0.00000   0.00000   0.00000
  71        7PY         0.00000   0.00000   1.54566   0.00000   0.00000
  72        7PZ         3.16611   0.00000   0.00000  -2.30018   0.00000
  73        8D 0       -0.00571   0.00000   0.00000   0.00360   0.00000
  74        8D+1        0.00000  -0.01978   0.00000   0.00000   0.00000
  75        8D-1        0.00000   0.00000  -0.01978   0.00000   0.00000
  76        8D+2        0.00000   0.00000   0.00000   0.00000   0.00000
  77        8D-2        0.00000   0.00000   0.00000   0.00000  -0.14204
  78        9D 0        0.48249   0.00000   0.00000  -0.24079   0.00000
  79        9D+1        0.00000   0.38279   0.00000   0.00000   0.00000
  80        9D-1        0.00000   0.00000   0.38279   0.00000   0.00000
  81        9D+2        0.00000   0.00000   0.00000   0.00000   0.00000
  82        9D-2        0.00000   0.00000   0.00000   0.00000   1.17564
  83       10F 0        0.03077   0.00000   0.00000   0.05200   0.00000
  84       10F+1        0.00000   0.06545   0.00000   0.00000   0.00000
  85       10F-1        0.00000   0.00000   0.06545   0.00000   0.00000
  86       10F+2        0.00000   0.00000   0.00000   0.00000   0.00000
  87       10F-2        0.00000   0.00000   0.00000   0.00000  -0.00330
  88       10F+3        0.00000   0.00000   0.00000   0.00000   0.00000
  89       10F-3        0.00000   0.00000   0.00000   0.00000   0.00000
                          41        42        43        44        45
                           V         V         V         V         V
     Eigenvalues --     2.33617   2.46574   2.46574   2.61801   3.01039
   1 1   Cl 1S          0.00000   0.00000   0.00000   0.08611   0.00000
   2        2S          0.00000   0.00000   0.00000  -0.02873   0.00000
   3        3S          0.00000   0.00000   0.00000   0.79109   0.00000
   4        4S          0.00000   0.00000   0.00000   3.65089   0.00000
   5        5S          0.00000   0.00000   0.00000  -6.38993   0.00000
   6        6S          0.00000   0.00000   0.00000  -3.99583   0.00000
   7        7PX         0.00000  -0.02045   0.00000   0.00000   0.01841
   8        7PY         0.00000   0.00000  -0.02045   0.00000   0.00000
   9        7PZ         0.00000   0.00000   0.00000   0.07574   0.00000
  10        8PX         0.00000  -0.03365   0.00000   0.00000  -0.03635
  11        8PY         0.00000   0.00000  -0.03365   0.00000   0.00000
  12        8PZ         0.00000   0.00000   0.00000  -0.16242   0.00000
  13        9PX         0.00000   0.14359   0.00000   0.00000   0.19659
  14        9PY         0.00000   0.00000   0.14359   0.00000   0.00000
  15        9PZ         0.00000   0.00000   0.00000  -0.14820   0.00000
  16       10PX         0.00000   0.17176   0.00000   0.00000  -1.42305
  17       10PY         0.00000   0.00000   0.17176   0.00000   0.00000
  18       10PZ         0.00000   0.00000   0.00000   5.68399   0.00000
  19       11PX         0.00000   0.27560   0.00000   0.00000  -0.06915
  20       11PY         0.00000   0.00000   0.27560   0.00000   0.00000
  21       11PZ         0.00000   0.00000   0.00000   0.95550   0.00000
  22       12D 0        0.00000   0.00000   0.00000  -2.09219   0.00000
  23       12D+1        0.00000  -0.40816   0.00000   0.00000   1.16811
[...]
  17         V                 0.516832          1.051074
  18         V                 0.516832          1.051074
  19         V                 0.520594          1.468059
  20         V                 0.745190          1.226231
  21         V                 0.838579          1.118619
  22         V                 0.838579          1.118619
  23         V                 1.105240          2.054959
  24         V                 1.269571          1.793123
  25         V                 1.496619          2.565629
  26         V                 1.496619          2.565629
  27         V                 1.508278          1.792670
  28         V                 1.508278          1.792670
  29         V                 1.556911          1.821003
  30         V                 1.556911          1.821003
  31         V                 1.558611          2.896820
  32         V                 1.558611          2.896820
  33         V                 1.653549          4.303929
  34         V                 1.653549          4.303929
  35         V                 1.666976          2.929030
  36         V                 1.741177          3.730666
  37         V                 1.786404          2.371003
  38         V                 1.786404          2.371003
  39         V                 2.135705          4.076073
  40         V                 2.341557          2.555575
  41         V                 2.341557          2.555575
  42         V                 2.467833          2.864413
  43         V                 2.467833          2.864413
  44         V                 2.627258          4.810253
  45         V                 3.020492          3.511783
  46         V                 3.020492          3.511783
  47         V                 3.082770          6.121016
  48         V                 3.555712          4.732796
  49         V                 3.900293          4.521264
  50         V                 3.900293          4.521264
  51         V                 3.938603          4.548500
  52         V                 3.938603          4.548500
  53         V                 4.072426          4.938453
  54         V                 4.072426          4.938453
  55         V                 4.105046          6.404914
  56         V                 4.105046          6.404914
  57         V                 4.117717          6.270450
  58         V                 4.129006          6.948715
  59         V                 4.129006          6.948715
  60         V                 4.295661          5.787823
  61         V                 4.295661          5.787823
  62         V                 4.338275          5.643835
  63         V                 4.338275          5.643835
  64         V                 4.373631          5.871964
  65         V                 4.373631          5.871964
  66         V                 4.710886          6.603686
  67         V                 4.973832          6.763147
  68         V                 4.986802          6.120619
  69         V                 4.986802          6.120619
  70         V                 5.949756         12.994738
  71         V                 5.949756         12.994738
  72         V                 6.103404          6.422994
  73         V                 6.103404          6.422994
  74         V                 6.376441         12.132123
  75         V                 6.792352          7.250909
  76         V                 6.792352          7.250909
  77         V                 7.212410          8.887261
  78         V                 7.383301          8.352627
  79         V                 7.383301          8.352627
  80         V                 8.105597          9.682932
  81         V                 8.227376          8.805146
  82         V                 8.227376          8.805146
  83         V                 8.632540          9.450344
  84         V                 8.632540          9.450344
  85         V                 8.812109          9.619786
  86         V                 8.812109          9.619786
  87         V                 9.399862         10.616763
  88         V                11.312110         13.814181
  89         V                24.273917         39.189961
 Total kinetic energy from orbitals= 4.601235737542D+02
  Exact polarizability:  12.715   0.000  12.715   0.000   0.000  15.929
 Approx polarizability:  12.337   0.000  12.337   0.000   0.000  16.132
 No NMR shielding tensors so no spin-rotation constants.
 Leave Link  601 at Wed Sep 03 18:01:54 2025, MaxMem=   536870912 cpu:               0.0 elap:               0.1
 (Enter C:\G16W\l701.exe)
 ... and contract with generalized density number  0.
 Compute integral second derivatives.
 Leave Link  701 at Wed Sep 03 18:01:54 2025, MaxMem=   536870912 cpu:               0.0 elap:               0.1
 (Enter C:\G16W\l702.exe)
 L702 exits ... SP integral derivatives will be done elsewhere.
 Leave Link  702 at Wed Sep 03 18:01:54 2025, MaxMem=   536870912 cpu:               0.0 elap:               0.0
 (Enter C:\G16W\l703.exe)
 Integral derivatives from FoFJK, PRISM(SPDF).
 Compute integral second derivatives, UseDBF=F ICtDFT=           0.
 Calling FoFJK, ICntrl=    100127 FMM=F ISym2X=1 I1Cent= 0 IOpClX= 0 NMat=1 NMatS=1 NMatT=0.
 FoFJK:  IHMeth= 1 ICntrl=  100127 DoSepK=F KAlg= 0 I1Cent=           0 FoldK=F
 IRaf=         0 NMat=       1 IRICut=       1 DoRegI=T DoRafI=F ISym2E= 1 IDoP0=0 IntGTp=1.
 FoFCou: FMM=F IPFlag=           0 FMFlag=      100000 FMFlg1=         800
         NFxFlg=           0 DoJE=F BraDBF=F KetDBF=F FulRan=T
         wScrn=  0.000000 ICntrl=    100127 IOpCl=  0 I1Cent=           0 NGrid=           0
         NMat0=    1 NMatS0=      1 NMatT0=    0 NMatD0=    1 NMtDS0=    0 NMtDT0=    0
 Petite list used in FoFCou.
 Leave Link  703 at Wed Sep 03 18:01:59 2025, MaxMem=   536870912 cpu:               5.0 elap:               4.5
 (Enter C:\G16W\l716.exe)
 Dipole        = 0.00000000D+00 0.00000000D+00-4.76045678D-01
 Polarizability= 1.27154278D+01 0.00000000D+00 1.27154278D+01
                 0.00000000D+00 0.00000000D+00 1.59288203D+01
 HyperPolar    = 0.00000000D+00 0.00000000D+00 0.00000000D+00
                 0.00000000D+00-8.33247730D-01 0.00000000D+00
                -8.33247730D-01 0.00000000D+00 0.00000000D+00
                -2.13650884D+01
 Full mass-weighted force constant matrix:
 Low frequencies ---   -0.0037   -0.0036    0.0052    0.3607    0.3607 3138.7402
 Diagonal vibrational polarizability:
        0.0000000       0.0000000       0.1474700
 Diagonal vibrational hyperpolarizability:
        0.0000000       0.0000000      -5.9420914
 Harmonic frequencies (cm**-1), IR intensities (KM/Mole), Raman scattering
 activities (A**4/AMU), depolarization ratios for plane and unpolarized
 incident light, reduced masses (AMU), force constants (mDyne/A),
 and normal coordinates:
                      1
                     SG
 Frequencies --   3138.7402
 Red. masses --      1.0360
 Frc consts  --      6.0135
 IR Inten    --     53.9860
 Raman Activ --     87.5428
 Depolar (P) --      0.2747
 Depolar (U) --      0.4310
  Atom  AN      X      Y      Z
     1  17     0.00   0.00  -0.03
     2   1     0.00   0.00   1.00

 -------------------
 - Thermochemistry -
 -------------------
 Temperature   298.150 Kelvin.  Pressure   1.00000 Atm.
 Atom     1 has atomic number 17 and mass  34.96885
 Atom     2 has atomic number  1 and mass   1.00783
 Molecular mass:    35.97668 amu.
 Principal axes and moments of inertia in atomic units:
                           1         2         3
     Eigenvalues --     0.00000   5.60317   5.60317
           X            0.00000   0.00000   1.00000
           Y            0.00000   1.00000   0.00000
           Z            1.00000   0.00000   0.00000
 This molecule is a prolate symmetric top.
 Rotational symmetry number  1.
 Rotational temperature (Kelvin)     15.45802
 Rotational constant (GHZ):         322.092884
 Zero-point vibrational energy      18773.8 (Joules/Mol)
                                    4.48705 (Kcal/Mol)
 Vibrational temperatures:   4515.95
          (Kelvin)
 
 Zero-point correction=                           0.007151 (Hartree/Particle)
 Thermal correction to Energy=                    0.009511
 Thermal correction to Enthalpy=                  0.010455
 Thermal correction to Gibbs Free Energy=        -0.010707
 Sum of electronic and zero-point Energies=           -460.104122
 Sum of electronic and thermal Energies=              -460.101761
 Sum of electronic and thermal Enthalpies=            -460.100817
 Sum of electronic and thermal Free Energies=         -460.121979
 
                     E (Thermal)             CV                S
                      KCal/Mol        Cal/Mol-Kelvin    Cal/Mol-Kelvin
 Total                    5.968              4.968             44.539
 Electronic               0.000              0.000              0.000
 Translational            0.889              2.981             36.671
 Rotational               0.592              1.987              7.868
 Vibrational              4.487              0.000              0.000
                       Q            Log10(Q)             Ln(Q)
 Total Bot       0.840877D+05          4.924733         11.339616
 Total V=0       0.163594D+09          8.213766         18.912896
 Vib (Bot)       0.514004D-03         -3.289034         -7.573280
 Vib (V=0)       0.100000D+01          0.000000          0.000000
 Electronic      0.100000D+01          0.000000          0.000000
 Translational   0.848175D+07          6.928485         15.953427
 Rotational      0.192877D+02          1.285281          2.959469
 ***** Axes restored to original set *****
 -------------------------------------------------------------------
 Center     Atomic                   Forces (Hartrees/Bohr)
 Number     Number              X              Y              Z
 -------------------------------------------------------------------
      1       17           0.000000000    0.000000000    0.000000018
      2        1           0.000000000    0.000000000   -0.000000018
 -------------------------------------------------------------------
 Cartesian Forces:  Max     0.000000018 RMS     0.000000010
 Force constants in Cartesian coordinates: 
                1             2             3             4             5 
      1  0.000000D+00
      2  0.000000D+00  0.000000D+00
      3  0.000000D+00  0.000000D+00  0.365214D+00
      4  0.000000D+00  0.000000D+00  0.000000D+00  0.000000D+00
      5  0.000000D+00  0.000000D+00  0.000000D+00  0.000000D+00  0.000000D+00
      6  0.000000D+00  0.000000D+00 -0.365214D+00  0.000000D+00  0.000000D+00
                6 
      6  0.365214D+00
 FormGI is forming the generalized inverse of G from B-inverse, IUseBI=4.
 Force constants in internal coordinates: 
                1 
      1  0.365214D+00
 Leave Link  716 at Wed Sep 03 18:01:59 2025, MaxMem=   536870912 cpu:               0.0 elap:               0.0
 (Enter C:\G16W\l103.exe)

 GradGradGradGradGradGradGradGradGradGradGradGradGradGradGradGradGradGrad
 Berny optimization.
 Red2BG is reusing G-inverse.
 Internal  Forces:  Max     0.000000018 RMS     0.000000018
 Search for a local minimum.
 Step number   1 out of a maximum of    2
 All quantities printed in internal units (Hartrees-Bohrs-Radians)
 Second derivative matrix not updated -- analytic derivatives used.
 The second derivative matrix:
                          R1
           R1           0.36521
 ITU=  0
     Eigenvalues ---    0.36521
 Angle between quadratic step and forces=  90.00 degrees.
 Linear search not attempted -- first point.
 Iteration  1 RMS(Cart)=  0.00000003 RMS(Int)=  0.00000000
 ITry= 1 IFail=0 DXMaxC= 2.41D-08 DCOld= 1.00D+10 DXMaxT= 3.00D-01 DXLimC= 3.00D+00 Rises=F
 ClnCor:  largest displacement from symmetrization is 0.00D+00 for atom     0.
 Variable       Old X    -DE/DX   Delta X   Delta X   Delta X     New X
                                 (Linear)    (Quad)   (Total)
    R1        2.39163   0.00000   0.00000   0.00000   0.00000   2.39163
         Item               Value     Threshold  Converged?
 Maximum Force            0.000000     0.000015     YES
 RMS     Force            0.000000     0.000010     YES
 Maximum Displacement     0.000000     0.000060     YES
 RMS     Displacement     0.000000     0.000040     YES
 Predicted change in Energy=-4.230019D-16
 Optimization completed.
    -- Stationary point found.
                           ----------------------------
                           !   Optimized Parameters   !
                           ! (Angstroms and Degrees)  !
 --------------------------                            --------------------------
 ! Name  Definition              Value          Derivative Info.                !
 --------------------------------------------------------------------------------
 ! R1    R(1,2)                  1.2656         -DE/DX =    0.0                 !
 --------------------------------------------------------------------------------
 GradGradGradGradGradGradGradGradGradGradGradGradGradGradGradGradGradGrad

 Leave Link  103 at Wed Sep 03 18:01:59 2025, MaxMem=   536870912 cpu:               0.0 elap:               0.0
 (Enter C:\G16W\l9999.exe)

 ----------------------------------------------------------------------

 Electric dipole moment (input orientation):
 (Debye = 10**-18 statcoulomb cm , SI units = C m)
                  (au)            (Debye)         (10**-30 SI)
   Tot        0.476046D+00      0.120999D+01      0.403608D+01
   x          0.000000D+00      0.000000D+00      0.000000D+00
   y          0.000000D+00      0.000000D+00      0.000000D+00
   z          0.476046D+00      0.120999D+01      0.403608D+01

 Dipole polarizability, Alpha (input orientation).
 (esu units = cm**3 , SI units = C**2 m**2 J**-1)
 Alpha(0;0):
               (au)            (10**-24 esu)      (10**-40 SI)
   iso        0.137866D+02      0.204296D+01      0.227310D+01
   aniso      0.321339D+01      0.476176D+00      0.529817D+00
   xx         0.127154D+02      0.188423D+01      0.209649D+01
   yx         0.000000D+00      0.000000D+00      0.000000D+00
   yy         0.127154D+02      0.188423D+01      0.209649D+01
   zx         0.000000D+00      0.000000D+00      0.000000D+00
   zy         0.000000D+00      0.000000D+00      0.000000D+00
   zz         0.159288D+02      0.236041D+01      0.262631D+01

 First dipole hyperpolarizability, Beta (input orientation).
 ||, _|_  parallel and perpendicular components, (z) with respect to z axis,
 vector components x,y,z.  Values do not include the 1/n! factor of 1/2.
 (esu units = statvolt**-1 cm**4 , SI units = C**3 m**3 J**-2)
 Beta(0;0,0):
               (au)            (10**-30 esu)      (10**-50 SI)
   || (z)     0.138190D+02      0.119385D+00      0.443085D-01
   _|_(z)     0.460632D+01      0.397950D-01      0.147695D-01
   x          0.000000D+00      0.000000D+00      0.000000D+00
   y          0.000000D+00      0.000000D+00      0.000000D+00
   z          0.690948D+02      0.596925D+00      0.221543D+00
   ||         0.138190D+02      0.119385D+00      0.443085D-01
   xxx        0.000000D+00      0.000000D+00      0.000000D+00
   xxy        0.000000D+00      0.000000D+00      0.000000D+00
   yxy        0.000000D+00      0.000000D+00      0.000000D+00
   yyy        0.000000D+00      0.000000D+00      0.000000D+00
   xxz        0.833248D+00      0.719861D-02      0.267169D-02
   yxz        0.000000D+00      0.000000D+00      0.000000D+00
   yyz        0.833248D+00      0.719861D-02      0.267169D-02
   zxz        0.000000D+00      0.000000D+00      0.000000D+00
   zyz        0.000000D+00      0.000000D+00      0.000000D+00
   zzz        0.213651D+02      0.184578D+00      0.685042D-01

 ----------------------------------------------------------------------

 Dipole orientation:
    17          0.00000000          0.00000000          0.00888493
     1          0.00000000          0.00000000          2.40051588

 Electric dipole moment (dipole orientation):
 (Debye = 10**-18 statcoulomb cm , SI units = C m)
                  (au)            (Debye)         (10**-30 SI)
   Tot        0.476046D+00      0.120999D+01      0.403608D+01
   x          0.000000D+00      0.000000D+00      0.000000D+00
   y          0.000000D+00      0.000000D+00      0.000000D+00
   z          0.476046D+00      0.120999D+01      0.403608D+01

 Dipole polarizability, Alpha (dipole orientation).
 (esu units = cm**3 , SI units = C**2 m**2 J**-1)
 Alpha(0;0):
               (au)            (10**-24 esu)      (10**-40 SI)
   iso        0.137866D+02      0.204296D+01      0.227310D+01
   aniso      0.321339D+01      0.476176D+00      0.529817D+00
   xx         0.127154D+02      0.188423D+01      0.209649D+01
   yx         0.000000D+00      0.000000D+00      0.000000D+00
   yy         0.127154D+02      0.188423D+01      0.209649D+01
   zx         0.000000D+00      0.000000D+00      0.000000D+00
   zy         0.000000D+00      0.000000D+00      0.000000D+00
   zz         0.159288D+02      0.236041D+01      0.262631D+01

 First dipole hyperpolarizability, Beta (dipole orientation).
 ||, _|_  parallel and perpendicular components, (z) with respect to z axis,
 vector components x,y,z.  Values do not include the 1/n! factor of 1/2.
 (esu units = statvolt**-1 cm**4 , SI units = C**3 m**3 J**-2)
 Beta(0;0,0):
               (au)            (10**-30 esu)      (10**-50 SI)
   || (z)     0.138190D+02      0.119385D+00      0.443085D-01
   _|_(z)     0.460632D+01      0.397950D-01      0.147695D-01
   x          0.000000D+00      0.000000D+00      0.000000D+00
   y          0.000000D+00      0.000000D+00      0.000000D+00
   z          0.690948D+02      0.596925D+00      0.221543D+00
   ||         0.138190D+02      0.119385D+00      0.443085D-01
   xxx        0.000000D+00      0.000000D+00      0.000000D+00
   xxy        0.000000D+00      0.000000D+00      0.000000D+00
   yxy        0.000000D+00      0.000000D+00      0.000000D+00
   yyy        0.000000D+00      0.000000D+00      0.000000D+00
   xxz        0.833248D+00      0.719861D-02      0.267169D-02
   yxz        0.000000D+00      0.000000D+00      0.000000D+00
   yyz        0.833248D+00      0.719861D-02      0.267169D-02
   zxz        0.000000D+00      0.000000D+00      0.000000D+00
   zyz        0.000000D+00      0.000000D+00      0.000000D+00
   zzz        0.213651D+02      0.184578D+00      0.685042D-01

 ----------------------------------------------------------------------
 1|1|UNPC-DESKTOP-SI45VP7|Freq|RHF|CC-pVQZ|Cl1H1|DOG OF ROMAN|03-Sep-20
 25|0||#P Geom=AllCheck Guess=TCheck SCRF=Check GenChk RHF/CC-pVQZ Freq
 ||Calculation of the ground state energy with STO-3G basis set||0,1|Cl
 ,0.,0.,0.0047017001|H,0.,0.,1.2702982999||Version=EM64W-G16RevB.01|Sta
 te=1-SG|HF=-460.1112723|RMSD=7.268e-010|RMSF=1.015e-008|ZeroPoint=0.00
 71506|Thermal=0.009511|Dipole=0.,0.,0.4760457|DipoleDeriv=-0.1990465,0
 .,0.,0.,-0.1990465,0.,0.,0.,-0.2329098,0.1990465,0.,0.,0.,0.1990465,0.
 ,0.,0.,0.2329098|Polar=12.7154278,0.,12.7154278,0.,0.,15.9288203|Polar
 Deriv=0.,0.,0.,-1.3435989,0.,0.,0.,0.,0.,0.,-1.3435989,0.,-0.5216626,0
 .,-0.5216626,0.,0.,-9.3847663,0.,0.,0.,1.3435989,0.,0.,0.,0.,0.,0.,1.3
 435989,0.,0.5216626,0.,0.5216626,0.,0.,9.3847663|HyperPolar=0.,0.,0.,0
 .,0.8332477,0.,0.8332477,0.,0.,21.3650884|Quadrupole=-0.9028098,-0.902
 8098,1.8056196,0.,0.,0.|PG=C*V [C*(H1Cl1)]|NImag=0||0.,0.,0.,0.,0.,0.3
 6521420,0.,0.,0.,0.,0.,0.,0.,0.,0.,0.,0.,-0.36521420,0.,0.,0.36521420|
 |0.,0.,-0.00000002,0.,0.,0.00000002|||@


 THE MOST INCOMPREHENSIBLE THING ABOUT THE WORLD
 IS THAT IT IS COMPREHENSIBLE. -- A. EINSTEIN
 Job cpu time:       0 days  0 hours  0 minutes 10.0 seconds.
 Elapsed time:       0 days  0 hours  0 minutes  9.2 seconds.
 File lengths (MBytes):  RWF=     10 Int=      0 D2E=      0 Chk=      2 Scr=      1
 Normal termination of Gaussian 16 at Wed Sep 03 18:01:59 2025.
