 Entering Link 1 = C:\G16W\l1.exe PID=     58252.
  
 Copyright (c) 1988-2017, Gaussian, Inc.  All Rights Reserved.
  
 This is part of the Gaussian(R) 16 program.  It is based on
 the Gaussian(R) 09 system (copyright 2009, Gaussian, Inc.),
 the Gaussian(R) 03 system (copyright 2003, Gaussian, Inc.),
 the Gaussian(R) 98 system (copyright 1998, Gaussian, Inc.),
 the Gaussian(R) 94 system (copyright 1995, Gaussian, Inc.),
 the Gaussian 92(TM) system (copyright 1992, Gaussian, Inc.),
 the Gaussian 90(TM) system (copyright 1990, Gaussian, Inc.),
 the Gaussian 88(TM) system (copyright 1988, Gaussian, Inc.),
 the Gaussian 86(TM) system (copyright 1986, Carnegie Mellon
 University), and the Gaussian 82(TM) system (copyright 1983,
 Carnegie Mellon University). Gaussian is a federally registered
 trademark of Gaussian, Inc.
  
 This software contains proprietary and confidential information,
 including trade secrets, belonging to Gaussian, Inc.
  
 This software is provided under written license and may be
 used, copied, transmitted, or stored only in accord with that
 written license.
  
 The following legend is applicable only to US Government
 contracts under FAR:
  
                    RESTRICTED RIGHTS LEGEND
  
 Use, reproduction and disclosure by the US Government is
 subject to restrictions as set forth in subparagraphs (a)
 and (c) of the Commercial Computer Software - Restricted
 Rights clause in FAR 52.227-19.
  
 Gaussian, Inc.
 340 Quinnipiac St., Bldg. 40, Wallingford CT 06492
  
  
 ---------------------------------------------------------------
 Warning -- This program may not be used in any manner that
 competes with the business of Gaussian, Inc. or will provide
 assistance to any competitor of Gaussian, Inc.  The licensee
 of this program is prohibited from giving any competitor of
 Gaussian, Inc. access to this program.  By using this program,
 the user acknowledges that Gaussian, Inc. is engaged in the
 business of creating and licensing software in the field of
 computational chemistry and represents and warrants to the
 licensee that it is not a competitor of Gaussian, Inc. and that
 it will not use this program in any manner prohibited above.
 ---------------------------------------------------------------
  

 Cite this work as:
 Gaussian 16, Revision B.01,
 M. J. Frisch, G. W. Trucks, H. B. Schlegel, G. E. Scuseria, 
 M. A. Robb, J. R. Cheeseman, G. Scalmani, V. Barone, 
 G. A. Petersson, H. Nakatsuji, X. Li, M. Caricato, A. V. Marenich, 
 J. Bloino, B. G. Janesko, R. Gomperts, B. Mennucci, H. P. Hratchian, 
 J. V. Ortiz, A. F. Izmaylov, J. L. Sonnenberg, D. Williams-Young, 
 F. Ding, F. Lipparini, F. Egidi, J. Goings, B. Peng, A. Petrone, 
 T. Henderson, D. Ranasinghe, V. G. Zakrzewski, J. Gao, N. Rega, 
 G. Zheng, W. Liang, M. Hada, M. Ehara, K. Toyota, R. Fukuda, 
 J. Hasegawa, M. Ishida, T. Nakajima, Y. Honda, O. Kitao, H. Nakai, 
 T. Vreven, K. Throssell, J. A. Montgomery, Jr., J. E. Peralta, 
 F. Ogliaro, M. J. Bearpark, J. J. Heyd, E. N. Brothers, K. N. Kudin, 
 V. N. Staroverov, T. A. Keith, R. Kobayashi, J. Normand, 
 K. Raghavachari, A. P. Rendell, J. C. Burant, S. S. Iyengar, 
 J. Tomasi, M. Cossi, J. M. Millam, M. Klene, C. Adamo, R. Cammi, 
 J. W. Ochterski, R. L. Martin, K. Morokuma, O. Farkas, 
 J. B. Foresman, and D. J. Fox, Gaussian, Inc., Wallingford CT, 2016.
 
 ******************************************
 Gaussian 16:  EM64W-G16RevB.01 16-Dec-2017
                03-Sep-2025 
 ******************************************
 %chk=HCl.chk
 %mem=4GB
 %nproc=1
 Will use up to    1 processors via shared memory.
 --------------------------------------------------------
 #p hf/cc-pVDZ opt=(tight,calcfc) freq scf=tight pop=full
 --------------------------------------------------------
 1/7=10,10=4,18=20,19=15,38=1/1,3;
 2/9=110,12=2,17=6,18=5,40=1/2;
 3/5=16,11=9,25=1,30=1,71=2,140=1/1,2,3;
 4//1;
 5/5=2,32=2,38=5/2;
 8/6=4,10=90,11=11/1;
 11/6=1,8=1,9=11,15=111,16=1/1,2,10;
 10/6=1,13=1/2;
 6/7=3,28=1/1;
 7/10=1,18=20,25=1/1,2,3,16;
 1/7=10,10=4,18=20,19=15/3(2);
 2/9=110/2;
 99//99;
 2/9=110/2;
 3/5=16,11=9,25=1,30=1,71=1/1,2,3;
 4/5=5,16=3,69=1/1;
 5/5=2,32=2,38=5/2;
 7//1,2,3,16;
 1/7=10,18=20,19=15/3(-5);
 2/9=110/2;
 6/7=3,19=2,28=1/1;
 99/9=1/99;
 Leave Link    1 at Wed Sep 03 18:00:37 2025, MaxMem=   536870912 cpu:               0.0 elap:               0.0
 (Enter C:\G16W\l101.exe)
 ------------------------------------------------------------
 Calculation of the ground state energy with STO-3G basis set
 ------------------------------------------------------------
 Symbolic Z-matrix:
 Charge =  0 Multiplicity = 1
 Cl
 H                    1    B1
       Variables:
  B1                    1.275                    
 
 ITRead=  0  0
 MicOpt= -1 -1
 NAtoms=      2 NQM=        2 NQMF=       0 NMMI=      0 NMMIF=      0
                NMic=       0 NMicF=      0.
                    Isotopes and Nuclear Properties:
 (Nuclear quadrupole moments (NQMom) in fm**2, nuclear magnetic moments (NMagM)
  in nuclear magnetons)

  Atom         1           2
 IAtWgt=          35           1
 AtmWgt=  34.9688527   1.0078250
 NucSpn=           3           1
 AtZEff=   0.0000000   0.0000000
 NQMom=   -8.1650000   0.0000000
 NMagM=    0.8218740   2.7928460
 AtZNuc=  17.0000000   1.0000000
 Leave Link  101 at Wed Sep 03 18:00:38 2025, MaxMem=   536870912 cpu:               1.0 elap:               0.1
 (Enter C:\G16W\l103.exe)

 GradGradGradGradGradGradGradGradGradGradGradGradGradGradGradGradGradGrad
 Berny optimization.
 Initialization pass.
                           ----------------------------
                           !    Initial Parameters    !
                           ! (Angstroms and Degrees)  !
 --------------------------                            --------------------------
 ! Name  Definition              Value          Derivative Info.                !
 --------------------------------------------------------------------------------
 ! R1    R(1,2)                  1.275          calculate D2E/DX2 analytically  !
 --------------------------------------------------------------------------------
 Trust Radius=3.00D-01 FncErr=1.00D-07 GrdErr=1.00D-07 EigMax=2.50D+02 EigMin=1.00D-04
 Number of steps in this run=     20 maximum allowed number of steps=    100.
 GradGradGradGradGradGradGradGradGradGradGradGradGradGradGradGradGradGrad

 Leave Link  103 at Wed Sep 03 18:00:38 2025, MaxMem=   536870912 cpu:               0.0 elap:               0.0
 (Enter C:\G16W\l202.exe)
                          Input orientation:                          
 ---------------------------------------------------------------------
 Center     Atomic      Atomic             Coordinates (Angstroms)
 Number     Number       Type             X           Y           Z
 ---------------------------------------------------------------------
      1         17           0        0.000000    0.000000    0.000000
      2          1           0        0.000000    0.000000    1.275000
 ---------------------------------------------------------------------
 Stoichiometry    ClH
 Framework group  C*V[C*(HCl)]
 Deg. of freedom     1
 Full point group                 C*V     NOp   4
 Largest Abelian subgroup         C2V     NOp   4
 Largest concise Abelian subgroup C1      NOp   1
                         Standard orientation:                         
 ---------------------------------------------------------------------
 Center     Atomic      Atomic             Coordinates (Angstroms)
 Number     Number       Type             X           Y           Z
 ---------------------------------------------------------------------
      1         17           0        0.000000    0.000000    0.070833
      2          1           0        0.000000    0.000000   -1.204167
 ---------------------------------------------------------------------
 Rotational constants (GHZ):           0.0000000         317.3593948         317.3593948
 Leave Link  202 at Wed Sep 03 18:00:38 2025, MaxMem=   536870912 cpu:               0.0 elap:               0.0
 (Enter C:\G16W\l301.exe)
 Standard basis: CC-pVDZ (5D, 7F)
 Ernie: Thresh=  0.10000D-02 Tol=  0.10000D-05 Strict=F.
 Ernie:  10 primitive shells out of 55 were deleted.
 There are    13 symmetry adapted cartesian basis functions of A1  symmetry.
 There are     1 symmetry adapted cartesian basis functions of A2  symmetry.
 There are     5 symmetry adapted cartesian basis functions of B1  symmetry.
 There are     5 symmetry adapted cartesian basis functions of B2  symmetry.
 There are    12 symmetry adapted basis functions of A1  symmetry.
 There are     1 symmetry adapted basis functions of A2  symmetry.
 There are     5 symmetry adapted basis functions of B1  symmetry.
 There are     5 symmetry adapted basis functions of B2  symmetry.
    23 basis functions,    78 primitive gaussians,    24 cartesian basis functions
     9 alpha electrons        9 beta electrons
       nuclear repulsion energy         7.0556961456 Hartrees.
 IExCor=    0 DFT=F Ex=HF Corr=None ExCW=0 ScaHFX=  1.000000
 ScaDFX=  1.000000  1.000000  1.000000  1.000000 ScalE2=  1.000000  1.000000
 IRadAn=      5 IRanWt=     -1 IRanGd=            0 ICorTp=0 IEmpDi=  4
 NAtoms=    2 NActive=    2 NUniq=    2 SFac= 1.00D+00 NAtFMM=   60 NAOKFM=F Big=F
 Integral buffers will be    131072 words long.
 Raffenetti 1 integral format.
 Two-electron integral symmetry is turned on.
 Leave Link  301 at Wed Sep 03 18:00:38 2025, MaxMem=   536870912 cpu:               0.0 elap:               0.0
 (Enter C:\G16W\l302.exe)
 NPDir=0 NMtPBC=     1 NCelOv=     1 NCel=       1 NClECP=     1 NCelD=      1
         NCelK=      1 NCelE2=     1 NClLst=     1 CellRange=     0.0.
 One-electron integrals computed using PRISM.
 One-electron integral symmetry used in STVInt
 NBasis=    23 RedAO= T EigKep=  4.97D-02  NBF=    12     1     5     5
 NBsUse=    23 1.00D-06 EigRej= -1.00D+00 NBFU=    12     1     5     5
 Leave Link  302 at Wed Sep 03 18:00:38 2025, MaxMem=   536870912 cpu:               0.0 elap:               0.0
 (Enter C:\G16W\l303.exe)
 DipDrv:  MaxL=1.
 Leave Link  303 at Wed Sep 03 18:00:38 2025, MaxMem=   536870912 cpu:               0.0 elap:               0.0
 (Enter C:\G16W\l401.exe)
 ExpMin= 1.22D-01 ExpMax= 1.28D+05 ExpMxC= 1.24D+03 IAcc=3 IRadAn=         5 AccDes= 0.00D+00
 Harris functional with IExCor=  205 and IRadAn=       5 diagonalized for initial guess.
 HarFok:  IExCor=  205 AccDes= 0.00D+00 IRadAn=         5 IDoV= 1 UseB2=F ITyADJ=14
 ICtDFT=  3500011 ScaDFX=  1.000000  1.000000  1.000000  1.000000
 FoFCou: FMM=F IPFlag=           0 FMFlag=      100000 FMFlg1=           0
         NFxFlg=           0 DoJE=T BraDBF=F KetDBF=T FulRan=T
         wScrn=  0.000000 ICntrl=       500 IOpCl=  0 I1Cent=   200000004 NGrid=           0
         NMat0=    1 NMatS0=      1 NMatT0=    0 NMatD0=    1 NMtDS0=    0 NMtDT0=    0
 Petite list used in FoFCou.
 Harris En= -459.639423273538    
 JPrj=0 DoOrth=F DoCkMO=F.
 Initial guess orbital symmetries:
       Occupied  (SG) (SG) (SG) (PI) (PI) (SG) (SG) (PI) (PI)
       Virtual   (SG) (SG) (PI) (PI) (SG) (PI) (PI) (DLTA) (DLTA)
                 (SG) (SG) (PI) (PI) (SG)
 The electronic state of the initial guess is 1-SG.
 Leave Link  401 at Wed Sep 03 18:00:38 2025, MaxMem=   536870912 cpu:               0.0 elap:               0.1
 (Enter C:\G16W\l502.exe)
 Keep R1 ints in memory in symmetry-blocked form, NReq=882570.
 FoFCou: FMM=F IPFlag=           0 FMFlag=           0 FMFlg1=           0
         NFxFlg=           0 DoJE=F BraDBF=F KetDBF=F FulRan=T
         wScrn=  0.000000 ICntrl=       600 IOpCl=  0 I1Cent=           0 NGrid=           0
         NMat0=    1 NMatS0=    276 NMatT0=    0 NMatD0=    1 NMtDS0=    0 NMtDT0=    0
 Petite list used in FoFCou.
 Closed shell SCF:
 Using DIIS extrapolation, IDIIS=  1040.
 NGot=   536870912 LenX=   536856691 LenY=   536855674
 Requested convergence on RMS density matrix=1.00D-08 within 128 cycles.
 Requested convergence on MAX density matrix=1.00D-06.
 Requested convergence on             energy=1.00D-06.
 No special actions if energy rises.

 Cycle   1  Pass 1  IDiag  1:
 E= -460.078413739863    
 DIIS: error= 4.55D-02 at cycle   1 NSaved=   1.
 NSaved= 1 IEnMin= 1 EnMin= -460.078413739863     IErMin= 1 ErrMin= 4.55D-02
 ErrMax= 4.55D-02  0.00D+00 EMaxC= 1.00D-01 BMatC= 3.93D-02 BMatP= 3.93D-02
 IDIUse=3 WtCom= 5.45D-01 WtEn= 4.55D-01
 Coeff-Com:  0.100D+01
 Coeff-En:   0.100D+01
 Coeff:      0.100D+01
 Gap=     0.613 Goal=   None    Shift=    0.000
 GapD=    0.613 DampG=2.000 DampE=0.500 DampFc=1.0000 IDamp=-1.
 RMSDP=3.53D-03 MaxDP=3.26D-02              OVMax= 2.35D-02

 Cycle   2  Pass 1  IDiag  1:
 E= -460.089171993605     Delta-E=       -0.010758253742 Rises=F Damp=F
 DIIS: error= 2.51D-03 at cycle   2 NSaved=   2.
 NSaved= 2 IEnMin= 2 EnMin= -460.089171993605     IErMin= 2 ErrMin= 2.51D-03
 ErrMax= 2.51D-03  0.00D+00 EMaxC= 1.00D-01 BMatC= 2.59D-04 BMatP= 3.93D-02
 IDIUse=3 WtCom= 9.75D-01 WtEn= 2.51D-02
 Coeff-Com: -0.326D-01 0.103D+01
 Coeff-En:   0.000D+00 0.100D+01
 Coeff:     -0.318D-01 0.103D+01
 Gap=     0.623 Goal=   None    Shift=    0.000
 RMSDP=8.59D-04 MaxDP=7.38D-03 DE=-1.08D-02 OVMax= 4.57D-03

 Cycle   3  Pass 1  IDiag  1:
 E= -460.089419002062     Delta-E=       -0.000247008457 Rises=F Damp=F
 DIIS: error= 7.48D-04 at cycle   3 NSaved=   3.
 NSaved= 3 IEnMin= 3 EnMin= -460.089419002062     IErMin= 3 ErrMin= 7.48D-04
 ErrMax= 7.48D-04  0.00D+00 EMaxC= 1.00D-01 BMatC= 1.99D-05 BMatP= 2.59D-04
 IDIUse=3 WtCom= 9.93D-01 WtEn= 7.48D-03
 Coeff-Com: -0.476D-02 0.154D+00 0.851D+00
 Coeff-En:   0.000D+00 0.000D+00 0.100D+01
 Coeff:     -0.473D-02 0.153D+00 0.852D+00
 Gap=     0.620 Goal=   None    Shift=    0.000
 RMSDP=2.07D-04 MaxDP=1.92D-03 DE=-2.47D-04 OVMax= 2.11D-03

 Cycle   4  Pass 1  IDiag  1:
 E= -460.089443392098     Delta-E=       -0.000024390037 Rises=F Damp=F
 DIIS: error= 2.18D-04 at cycle   4 NSaved=   4.
 NSaved= 4 IEnMin= 4 EnMin= -460.089443392098     IErMin= 4 ErrMin= 2.18D-04
 ErrMax= 2.18D-04  0.00D+00 EMaxC= 1.00D-01 BMatC= 1.37D-06 BMatP= 1.99D-05
 IDIUse=3 WtCom= 9.98D-01 WtEn= 2.18D-03
 Coeff-Com:  0.222D-02-0.952D-01-0.174D+00 0.127D+01
 Coeff-En:   0.000D+00 0.000D+00 0.000D+00 0.100D+01
 Coeff:      0.221D-02-0.950D-01-0.173D+00 0.127D+01
 Gap=     0.620 Goal=   None    Shift=    0.000
 RMSDP=6.72D-05 MaxDP=4.38D-04 DE=-2.44D-05 OVMax= 7.32D-04

 Cycle   5  Pass 1  IDiag  1:
 E= -460.089446291230     Delta-E=       -0.000002899131 Rises=F Damp=F
 DIIS: error= 3.33D-05 at cycle   5 NSaved=   5.
 NSaved= 5 IEnMin= 5 EnMin= -460.089446291230     IErMin= 5 ErrMin= 3.33D-05
 ErrMax= 3.33D-05  0.00D+00 EMaxC= 1.00D-01 BMatC= 2.12D-08 BMatP= 1.37D-06
 IDIUse=1 WtCom= 1.00D+00 WtEn= 0.00D+00
 Coeff-Com: -0.238D-03 0.140D-01 0.235D-01-0.255D+00 0.122D+01
 Coeff:     -0.238D-03 0.140D-01 0.235D-01-0.255D+00 0.122D+01
 Gap=     0.620 Goal=   None    Shift=    0.000
 RMSDP=1.30D-05 MaxDP=8.05D-05 DE=-2.90D-06 OVMax= 1.54D-04

 Cycle   6  Pass 1  IDiag  1:
 E= -460.089446348587     Delta-E=       -0.000000057357 Rises=F Damp=F
 DIIS: error= 6.33D-06 at cycle   6 NSaved=   6.
 NSaved= 6 IEnMin= 6 EnMin= -460.089446348587     IErMin= 6 ErrMin= 6.33D-06
 ErrMax= 6.33D-06  0.00D+00 EMaxC= 1.00D-01 BMatC= 8.80D-10 BMatP= 2.12D-08
 IDIUse=1 WtCom= 1.00D+00 WtEn= 0.00D+00
 Coeff-Com: -0.392D-04 0.214D-02 0.583D-02-0.294D-01-0.966D-01 0.112D+01
 Coeff:     -0.392D-04 0.214D-02 0.583D-02-0.294D-01-0.966D-01 0.112D+01
 Gap=     0.620 Goal=   None    Shift=    0.000
 RMSDP=2.59D-06 MaxDP=1.65D-05 DE=-5.74D-08 OVMax= 2.34D-05

 Cycle   7  Pass 1  IDiag  1:
 E= -460.089446350491     Delta-E=       -0.000000001905 Rises=F Damp=F
 DIIS: error= 7.96D-07 at cycle   7 NSaved=   7.
 NSaved= 7 IEnMin= 7 EnMin= -460.089446350491     IErMin= 7 ErrMin= 7.96D-07
 ErrMax= 7.96D-07  0.00D+00 EMaxC= 1.00D-01 BMatC= 2.02D-11 BMatP= 8.80D-10
 IDIUse=1 WtCom= 1.00D+00 WtEn= 0.00D+00
 Coeff-Com:  0.732D-05-0.511D-03-0.644D-03 0.913D-02-0.508D-01 0.284D-01
 Coeff-Com:  0.101D+01
 Coeff:      0.732D-05-0.511D-03-0.644D-03 0.913D-02-0.508D-01 0.284D-01
 Coeff:      0.101D+01
 Gap=     0.620 Goal=   None    Shift=    0.000
 RMSDP=3.92D-07 MaxDP=2.44D-06 DE=-1.90D-09 OVMax= 3.68D-06

 Cycle   8  Pass 1  IDiag  1:
 E= -460.089446350531     Delta-E=       -0.000000000039 Rises=F Damp=F
 DIIS: error= 1.33D-07 at cycle   8 NSaved=   8.
 NSaved= 8 IEnMin= 8 EnMin= -460.089446350531     IErMin= 8 ErrMin= 1.33D-07
 ErrMax= 1.33D-07  0.00D+00 EMaxC= 1.00D-01 BMatC= 3.66D-13 BMatP= 2.02D-11
 IDIUse=1 WtCom= 1.00D+00 WtEn= 0.00D+00
 Coeff-Com: -0.941D-06 0.821D-04 0.339D-04-0.155D-02 0.131D-01-0.243D-01
 Coeff-Com: -0.219D+00 0.123D+01
 Coeff:     -0.941D-06 0.821D-04 0.339D-04-0.155D-02 0.131D-01-0.243D-01
 Coeff:     -0.219D+00 0.123D+01
 Gap=     0.620 Goal=   None    Shift=    0.000
 RMSDP=4.61D-08 MaxDP=5.33D-07 DE=-3.94D-11 OVMax= 4.53D-07

 Cycle   9  Pass 1  IDiag  1:
 E= -460.089446350530     Delta-E=        0.000000000001 Rises=F Damp=F
 DIIS: error= 1.72D-08 at cycle   9 NSaved=   9.
 NSaved= 9 IEnMin= 8 EnMin= -460.089446350531     IErMin= 9 ErrMin= 1.72D-08
 ErrMax= 1.72D-08  0.00D+00 EMaxC= 1.00D-01 BMatC= 5.50D-15 BMatP= 3.66D-13
 IDIUse=1 WtCom= 1.00D+00 WtEn= 0.00D+00
 Coeff-Com:  0.120D-06-0.102D-04 0.449D-05 0.199D-03-0.216D-02 0.520D-02
 Coeff-Com:  0.320D-01-0.278D+00 0.124D+01
 Coeff:      0.120D-06-0.102D-04 0.449D-05 0.199D-03-0.216D-02 0.520D-02
 Coeff:      0.320D-01-0.278D+00 0.124D+01
 Gap=     0.620 Goal=   None    Shift=    0.000
 RMSDP=6.35D-09 MaxDP=5.08D-08 DE= 1.19D-12 OVMax= 6.06D-08

 SCF Done:  E(RHF) =  -460.089446351     A.U. after    9 cycles
            NFock=  9  Conv=0.64D-08     -V/T= 2.0000
 KE= 4.600879007450D+02 PE=-1.109994987340D+03 EE= 1.827619440986D+02
 Leave Link  502 at Wed Sep 03 18:00:38 2025, MaxMem=   536870912 cpu:               0.0 elap:               0.1
 (Enter C:\G16W\l801.exe)
 Range of M.O.s used for correlation:     1    23
 NBasis=    23 NAE=     9 NBE=     9 NFC=     0 NFV=     0
 NROrb=     23 NOA=     9 NOB=     9 NVA=    14 NVB=    14
 Leave Link  801 at Wed Sep 03 18:00:38 2025, MaxMem=   536870912 cpu:               0.0 elap:               0.0
 (Enter C:\G16W\l1101.exe)
 Using compressed storage, NAtomX=     2.
 Will process      3 centers per pass.
 Leave Link 1101 at Wed Sep 03 18:00:38 2025, MaxMem=   536870912 cpu:               0.0 elap:               0.0
 (Enter C:\G16W\l1102.exe)
 Symmetrizing basis deriv contribution to polar:
 IMax=3 JMax=2 DiffMx= 0.00D+00
 Leave Link 1102 at Wed Sep 03 18:00:38 2025, MaxMem=   536870912 cpu:               0.0 elap:               0.0
 (Enter C:\G16W\l1110.exe)
 Forming Gx(P) for the SCF density, NAtomX=     2.
 Integral derivatives from FoFJK, PRISM(SPDF).
 Do as many integral derivatives as possible in FoFJK.
 G2DrvN: MDV=     536870628.
 G2DrvN: will do     3 centers at a time, making    1 passes.
 Calling FoFCou, ICntrl=  3107 FMM=F I1Cent=   0 AccDes= 0.00D+00.
 FoFJK:  IHMeth= 1 ICntrl=    3107 DoSepK=F KAlg= 0 I1Cent=           0 FoldK=F
 IRaf=         0 NMat=       1 IRICut=       1 DoRegI=T DoRafI=F ISym2E= 1 IDoP0=0 IntGTp=1.
 FoFCou: FMM=F IPFlag=           0 FMFlag=      100000 FMFlg1=           0
         NFxFlg=           0 DoJE=F BraDBF=F KetDBF=F FulRan=T
         wScrn=  0.000000 ICntrl=      3107 IOpCl=  0 I1Cent=           0 NGrid=           0
         NMat0=    1 NMatS0=      1 NMatT0=    0 NMatD0=    1 NMtDS0=    0 NMtDT0=    0
 Petite list used in FoFCou.
 End of G2Drv F.D. properties file   721 does not exist.
 End of G2Drv F.D. properties file   722 does not exist.
 End of G2Drv F.D. properties file   788 does not exist.
 Leave Link 1110 at Wed Sep 03 18:00:38 2025, MaxMem=   536870912 cpu:               0.0 elap:               0.1
 (Enter C:\G16W\l1002.exe)
 Minotr:  Closed shell wavefunction.
          IDoAtm=11
          Direct CPHF calculation.
          Differentiating once with respect to nuclear coordinates.
          Using symmetry in CPHF.
          Requested convergence is 1.0D-08 RMS, and 1.0D-07 maximum.
          Secondary convergence is 1.0D-12 RMS, and 1.0D-12 maximum.
          NewPWx=T KeepS1=F KeepF1=F KeepIn=T MapXYZ=F SortEE=F KeepMc=T.
 Keep R1 ints in memory in symmetry-blocked form, NReq=882989.
 FoFCou: FMM=F IPFlag=           0 FMFlag=           0 FMFlg1=           0
         NFxFlg=           0 DoJE=F BraDBF=F KetDBF=F FulRan=T
         wScrn=  0.000000 ICntrl=       600 IOpCl=  0 I1Cent=           0 NGrid=           0
         NMat0=    1 NMatS0=    276 NMatT0=    0 NMatD0=    1 NMtDS0=    0 NMtDT0=    0
 Petite list used in FoFCou.
          MDV=     536870912 using IRadAn=       1.
          Solving linear equations simultaneously, MaxMat=       0.
          There are     9 degrees of freedom in the 1st order CPHF.  IDoFFX=6 NUNeed=     0.
      3 vectors produced by pass  0 Test12= 1.40D-15 1.11D-08 XBig12= 1.43D-02 8.19D-02.
 AX will form     3 AO Fock derivatives at one time.
      3 vectors produced by pass  1 Test12= 1.40D-15 1.11D-08 XBig12= 6.71D-04 1.74D-02.
      3 vectors produced by pass  2 Test12= 1.40D-15 1.11D-08 XBig12= 1.66D-05 1.78D-03.
      3 vectors produced by pass  3 Test12= 1.40D-15 1.11D-08 XBig12= 3.21D-07 3.12D-04.
      3 vectors produced by pass  4 Test12= 1.40D-15 1.11D-08 XBig12= 1.65D-08 5.99D-05.
      3 vectors produced by pass  5 Test12= 1.40D-15 1.11D-08 XBig12= 2.85D-10 8.74D-06.
      3 vectors produced by pass  6 Test12= 1.40D-15 1.11D-08 XBig12= 1.72D-12 7.86D-07.
      1 vectors produced by pass  7 Test12= 1.40D-15 1.11D-08 XBig12= 4.59D-15 3.17D-08.
 InvSVY:  IOpt=1 It=  1 EMax= 1.11D-16
 Solved reduced A of dimension    22 with     3 vectors.
 End of Minotr F.D. properties file   721 does not exist.
 End of Minotr F.D. properties file   722 does not exist.
 End of Minotr F.D. properties file   788 does not exist.
 Leave Link 1002 at Wed Sep 03 18:00:38 2025, MaxMem=   536870912 cpu:               0.0 elap:               0.0
 (Enter C:\G16W\l601.exe)
 Copying SCF densities to generalized density rwf, IOpCl= 0 IROHF=0.

 **********************************************************************

            Population analysis using the SCF Density.

 **********************************************************************

 Orbital symmetries:
       Occupied  (SG) (SG) (SG) (PI) (PI) (SG) (SG) (PI) (PI)
       Virtual   (SG) (SG) (PI) (PI) (SG) (PI) (PI) (SG) (DLTA)
                 (DLTA) (SG) (PI) (PI) (SG)
 The electronic state is 1-SG.
 Alpha  occ. eigenvalues -- -104.84325 -10.56870  -8.03667  -8.03293  -8.03293
 Alpha  occ. eigenvalues --   -1.11356  -0.62065  -0.47146  -0.47146
 Alpha virt. eigenvalues --    0.14893   0.49465   0.75099   0.75099   0.75618
 Alpha virt. eigenvalues --    0.87944   0.87944   0.97066   0.98111   0.98111
 Alpha virt. eigenvalues --    1.35014   1.70735   1.70735   2.42330
     Molecular Orbital Coefficients:
                           1         2         3         4         5
                           O         O         O         O         O
     Eigenvalues --  -104.84325 -10.56870  -8.03667  -8.03293  -8.03293
   1 1   Cl 1S          1.00143  -0.27922  -0.00156   0.00000   0.00000
   2        2S         -0.00498   1.03658   0.00572   0.00000   0.00000
   3        3S          0.00080   0.03557  -0.00082   0.00000   0.00000
   4        4S         -0.00050  -0.01132   0.00028   0.00000   0.00000
   5        5PX         0.00000   0.00000   0.00000   0.00000   0.99972
   6        5PY         0.00000   0.00000   0.00000   0.99972   0.00000
   7        5PZ        -0.00005  -0.00497   0.99912   0.00000   0.00000
   8        6PX         0.00000   0.00000   0.00000   0.00000   0.00047
   9        6PY         0.00000   0.00000   0.00000   0.00047   0.00000
  10        6PZ        -0.00003  -0.00173   0.00224   0.00000   0.00000
  11        7PX         0.00000   0.00000   0.00000   0.00000   0.00131
  12        7PY         0.00000   0.00000   0.00000   0.00131   0.00000
  13        7PZ         0.00006   0.00159   0.00068   0.00000   0.00000
  14        8D 0        0.00002   0.00065  -0.00029   0.00000   0.00000
  15        8D+1        0.00000   0.00000   0.00000   0.00000  -0.00023
  16        8D-1        0.00000   0.00000   0.00000  -0.00023   0.00000
  17        8D+2        0.00000   0.00000   0.00000   0.00000   0.00000
  18        8D-2        0.00000   0.00000   0.00000   0.00000   0.00000
  19 2   H  1S         -0.00003  -0.00070  -0.00067   0.00000   0.00000
  20        2S          0.00012   0.00258   0.00025   0.00000   0.00000
  21        3PX         0.00000   0.00000   0.00000   0.00000   0.00006
  22        3PY         0.00000   0.00000   0.00000   0.00006   0.00000
  23        3PZ        -0.00005  -0.00107  -0.00031   0.00000   0.00000
                           6         7         8         9        10
                           O         O         O         O         V
     Eigenvalues --    -1.11356  -0.62065  -0.47146  -0.47146   0.14893
   1 1   Cl 1S          0.07938   0.02356   0.00000   0.00000  -0.02004
   2        2S         -0.28643  -0.09243   0.00000   0.00000   0.12754
   3        3S          0.47592   0.14071   0.00000   0.00000  -0.05343
   4        4S          0.49228   0.28578   0.00000   0.00000  -0.94863
   5        5PX         0.00000   0.00000   0.00000  -0.26535   0.00000
   6        5PY         0.00000   0.00000  -0.26535   0.00000   0.00000
   7        5PZ         0.03293  -0.21804   0.00000   0.00000  -0.12275
   8        6PX         0.00000   0.00000   0.00000   0.64348   0.00000
   9        6PY         0.00000   0.00000   0.64348   0.00000   0.00000
  10        6PZ        -0.06235   0.50463   0.00000   0.00000   0.28327
  11        7PX         0.00000   0.00000   0.00000   0.49754   0.00000
  12        7PY         0.00000   0.00000   0.49754   0.00000   0.00000
  13        7PZ        -0.01086   0.27795   0.00000   0.00000   0.84470
  14        8D 0        0.01378  -0.05630   0.00000   0.00000   0.04046
  15        8D+1        0.00000   0.00000   0.00000  -0.01609   0.00000
  16        8D-1        0.00000   0.00000  -0.01609   0.00000   0.00000
  17        8D+2        0.00000   0.00000   0.00000   0.00000   0.00000
  18        8D-2        0.00000   0.00000   0.00000   0.00000   0.00000
  19 2   H  1S          0.18470  -0.37392   0.00000   0.00000   0.19243
  20        2S          0.01653  -0.10412   0.00000   0.00000   1.53642
  21        3PX         0.00000   0.00000   0.00000   0.02373   0.00000
  22        3PY         0.00000   0.00000   0.02373   0.00000   0.00000
  23        3PZ         0.03033  -0.03317   0.00000   0.00000   0.00630
                          11        12        13        14        15
                           V         V         V         V         V
     Eigenvalues --     0.49465   0.75099   0.75099   0.75618   0.87944
   1 1   Cl 1S         -0.00192   0.00000   0.00000  -0.04248   0.00000
   2        2S          0.03164   0.00000   0.00000  -0.04526   0.00000
   3        3S          0.02548   0.00000   0.00000  -0.60318   0.00000
   4        4S          0.07955   0.00000   0.00000   0.29224   0.00000
   5        5PX         0.00000  -0.30287   0.00000   0.00000  -0.02053
   6        5PY         0.00000   0.00000  -0.30287   0.00000   0.00000
   7        5PZ        -0.02677   0.00000   0.00000   0.27912   0.00000
   8        6PX         0.00000   1.20505   0.00000   0.00000   0.05965
   9        6PY         0.00000   0.00000   1.20505   0.00000   0.00000
  10        6PZ        -0.00441   0.00000   0.00000  -1.08800   0.00000
  11        7PX         0.00000  -1.19393   0.00000   0.00000   0.05294
  12        7PY         0.00000   0.00000  -1.19393   0.00000   0.00000
  13        7PZ         0.41668   0.00000   0.00000   1.27678   0.00000
  14        8D 0        0.37933   0.00000   0.00000  -0.10756   0.00000
  15        8D+1        0.00000  -0.02208   0.00000   0.00000   0.85706
  16        8D-1        0.00000   0.00000  -0.02208   0.00000   0.00000
  17        8D+2        0.00000   0.00000   0.00000   0.00000   0.00000
  18        8D-2        0.00000   0.00000   0.00000   0.00000   0.00000
  19 2   H  1S          1.01680   0.00000   0.00000  -0.13440   0.00000
  20        2S         -0.88493   0.00000   0.00000   0.57757   0.00000
  21        3PX         0.00000   0.02101   0.00000   0.00000  -0.32241
  22        3PY         0.00000   0.00000   0.02101   0.00000   0.00000
  23        3PZ        -0.04334   0.00000   0.00000   0.15877   0.00000
                          16        17        18        19        20
                           V         V         V         V         V
     Eigenvalues --     0.87944   0.97066   0.98111   0.98111   1.35014
   1 1   Cl 1S          0.00000  -0.11239   0.00000   0.00000  -0.04072
   2        2S          0.00000  -0.30890   0.00000   0.00000  -0.15497
   3        3S          0.00000  -1.85631   0.00000   0.00000  -0.74550
   4        4S          0.00000   2.64498   0.00000   0.00000   1.04925
   5        5PX         0.00000   0.00000   0.00000   0.00000   0.00000
   6        5PY        -0.02053   0.00000   0.00000   0.00000   0.00000
   7        5PZ         0.00000  -0.09840   0.00000   0.00000  -0.04611
   8        6PX         0.00000   0.00000   0.00000   0.00000   0.00000
   9        6PY         0.05965   0.00000   0.00000   0.00000   0.00000
  10        6PZ         0.00000   0.39681   0.00000   0.00000   0.27811
  11        7PX         0.00000   0.00000   0.00000   0.00000   0.00000
  12        7PY         0.05294   0.00000   0.00000   0.00000   0.00000
  13        7PZ         0.00000  -0.92705   0.00000   0.00000  -0.74557
  14        8D 0        0.00000  -0.12999   0.00000   0.00000   0.89603
  15        8D+1        0.00000   0.00000   0.00000   0.00000   0.00000
  16        8D-1        0.85706   0.00000   0.00000   0.00000   0.00000
  17        8D+2        0.00000   0.00000   0.00000   1.00000   0.00000
  18        8D-2        0.00000   0.00000   1.00000   0.00000   0.00000
  19 2   H  1S          0.00000   0.23281   0.00000   0.00000  -0.92389
  20        2S          0.00000  -1.31482   0.00000   0.00000  -0.05365
  21        3PX         0.00000   0.00000   0.00000   0.00000   0.00000
  22        3PY        -0.32241   0.00000   0.00000   0.00000   0.00000
  23        3PZ         0.00000  -0.23958   0.00000   0.00000   0.22433
                          21        22        23
                           V         V         V
     Eigenvalues --     1.70735   1.70735   2.42330
   1 1   Cl 1S          0.00000   0.00000  -0.01431
   2        2S          0.00000   0.00000   0.14679
   3        3S          0.00000   0.00000  -0.01384
   4        4S          0.00000   0.00000  -1.17163
   5        5PX         0.00000   0.01701   0.00000
   6        5PY         0.01701   0.00000   0.00000
   7        5PZ         0.00000   0.00000  -0.18672
   8        6PX         0.00000  -0.02598   0.00000
   9        6PY        -0.02598   0.00000   0.00000
  10        6PZ         0.00000   0.00000   0.89731
  11        7PX         0.00000  -0.24408   0.00000
  12        7PY        -0.24408   0.00000   0.00000
  13        7PZ         0.00000   0.00000   0.51581
  14        8D 0        0.00000   0.00000  -0.95988
  15        8D+1        0.00000   0.60858   0.00000
  16        8D-1        0.60858   0.00000   0.00000
  17        8D+2        0.00000   0.00000   0.00000
  18        8D-2        0.00000   0.00000   0.00000
  19 2   H  1S          0.00000   0.00000   0.94987
  20        2S          0.00000   0.00000   0.61499
  21        3PX         0.00000   1.03443   0.00000
  22        3PY         1.03443   0.00000   0.00000
  23        3PZ         0.00000   0.00000   1.52803
     Density Matrix:
                           1         2         3         4         5
   1 1   Cl 1S          2.17537
   2        2S         -0.63870   2.33027
   3        3S          0.06394  -0.22493   0.49514
   4        4S          0.09695  -0.35830   0.54820   0.64828
   5        5PX         0.00000   0.00000   0.00000   0.00000   2.13971
   6        5PY         0.00000   0.00000   0.00000   0.00000   0.00000
   7        5PZ        -0.00548   0.02257  -0.03202  -0.09154   0.00000
   8        6PX         0.00000   0.00000   0.00000   0.00000  -0.34056
   9        6PY         0.00000   0.00000   0.00000   0.00000   0.00000
  10        6PZ         0.01478  -0.06113   0.08255   0.22708   0.00000
  11        7PX         0.00000   0.00000   0.00000   0.00000  -0.26143
  12        7PY         0.00000   0.00000   0.00000   0.00000   0.00000
  13        7PZ         0.01061  -0.04187   0.06800   0.14814   0.00000
  14        8D 0       -0.00078   0.00387  -0.00268  -0.01863   0.00000
  15        8D+1        0.00000   0.00000   0.00000   0.00000   0.00808
  16        8D-1        0.00000   0.00000   0.00000   0.00000   0.00000
  17        8D+2        0.00000   0.00000   0.00000   0.00000   0.00000
  18        8D-2        0.00000   0.00000   0.00000   0.00000   0.00000
  19 2   H  1S          0.01203  -0.03813   0.07053  -0.03185   0.00000
  20        2S         -0.00349   0.01514  -0.01339  -0.04330   0.00000
  21        3PX         0.00000   0.00000   0.00000   0.00000  -0.01247
  22        3PY         0.00000   0.00000   0.00000   0.00000   0.00000
  23        3PZ         0.00374  -0.01346   0.01946   0.01093   0.00000
                           6         7         8         9        10
   6        5PY         2.13971
   7        5PZ         0.00000   2.09378
   8        6PX         0.00000   0.00000   0.82812
   9        6PY        -0.34056   0.00000   0.00000   0.82812
  10        6PZ         0.00000  -0.21968   0.00000   0.00000   0.51709
  11        7PX         0.00000   0.00000   0.64031   0.00000   0.00000
  12        7PY        -0.26143   0.00000   0.00000   0.64031   0.00000
  13        7PZ         0.00000  -0.12058   0.00000   0.00000   0.28188
  14        8D 0        0.00000   0.02487   0.00000   0.00000  -0.05855
  15        8D+1        0.00000   0.00000  -0.02071   0.00000   0.00000
  16        8D-1        0.00808   0.00000   0.00000  -0.02071   0.00000
  17        8D+2        0.00000   0.00000   0.00000   0.00000   0.00000
  18        8D-2        0.00000   0.00000   0.00000   0.00000   0.00000
  19 2   H  1S          0.00000   0.17389   0.00000   0.00000  -0.40041
  20        2S          0.00000   0.04697   0.00000   0.00000  -0.10716
  21        3PX         0.00000   0.00000   0.03053   0.00000   0.00000
  22        3PY        -0.01247   0.00000   0.00000   0.03053   0.00000
  23        3PZ         0.00000   0.01586   0.00000   0.00000  -0.03726
                          11        12        13        14        15
  11        7PX         0.49509
  12        7PY         0.00000   0.49509
  13        7PZ         0.00000   0.00000   0.15475
  14        8D 0        0.00000   0.00000  -0.03160   0.00672
  15        8D+1       -0.01601   0.00000   0.00000   0.00000   0.00052
  16        8D-1        0.00000  -0.01601   0.00000   0.00000   0.00000
  17        8D+2        0.00000   0.00000   0.00000   0.00000   0.00000
  18        8D-2        0.00000   0.00000   0.00000   0.00000   0.00000
  19 2   H  1S          0.00000   0.00000  -0.21188   0.04720   0.00000
  20        2S          0.00000   0.00000  -0.05823   0.01218   0.00000
  21        3PX         0.02361   0.00000   0.00000   0.00000  -0.00076
  22        3PY         0.00000   0.02361   0.00000   0.00000   0.00000
  23        3PZ         0.00000   0.00000  -0.01910   0.00457   0.00000
                          16        17        18        19        20
  16        8D-1        0.00052
  17        8D+2        0.00000   0.00000
  18        8D-2        0.00000   0.00000   0.00000
  19 2   H  1S          0.00000   0.00000   0.00000   0.34786
  20        2S          0.00000   0.00000   0.00000   0.08397   0.02224
  21        3PX         0.00000   0.00000   0.00000   0.00000   0.00000
  22        3PY        -0.00076   0.00000   0.00000   0.00000   0.00000
  23        3PZ         0.00000   0.00000   0.00000   0.03601   0.00790
                          21        22        23
  21        3PX         0.00113
  22        3PY         0.00000   0.00113
  23        3PZ         0.00000   0.00000   0.00404
    Full Mulliken population analysis:
                           1         2         3         4         5
   1 1   Cl 1S          2.17537
   2        2S         -0.17644   2.33027
   3        3S         -0.00336  -0.03723   0.49514
   4        4S          0.00449  -0.11021   0.46245   0.64828
   5        5PX         0.00000   0.00000   0.00000   0.00000   2.13971
   6        5PY         0.00000   0.00000   0.00000   0.00000   0.00000
   7        5PZ         0.00000   0.00000   0.00000   0.00000   0.00000
   8        6PX         0.00000   0.00000   0.00000   0.00000  -0.11586
   9        6PY         0.00000   0.00000   0.00000   0.00000   0.00000
  10        6PZ         0.00000   0.00000   0.00000   0.00000   0.00000
  11        7PX         0.00000   0.00000   0.00000   0.00000  -0.02341
  12        7PY         0.00000   0.00000   0.00000   0.00000   0.00000
  13        7PZ         0.00000   0.00000   0.00000   0.00000   0.00000
  14        8D 0        0.00000   0.00000   0.00000   0.00000   0.00000
  15        8D+1        0.00000   0.00000   0.00000   0.00000   0.00000
  16        8D-1        0.00000   0.00000   0.00000   0.00000   0.00000
  17        8D+2        0.00000   0.00000   0.00000   0.00000   0.00000
  18        8D-2        0.00000   0.00000   0.00000   0.00000   0.00000
  19 2   H  1S          0.00007  -0.00168   0.01666  -0.01164   0.00000
  20        2S         -0.00006   0.00172  -0.00546  -0.02694   0.00000
  21        3PX         0.00000   0.00000   0.00000   0.00000  -0.00017
  22        3PY         0.00000   0.00000   0.00000   0.00000   0.00000
  23        3PZ         0.00003  -0.00097   0.00602   0.00286   0.00000
                           6         7         8         9        10
   6        5PY         2.13971
   7        5PZ         0.00000   2.09378
   8        6PX         0.00000   0.00000   0.82812
   9        6PY        -0.11586   0.00000   0.00000   0.82812
  10        6PZ         0.00000  -0.07473   0.00000   0.00000   0.51709
  11        7PX         0.00000   0.00000   0.39659   0.00000   0.00000
  12        7PY        -0.02341   0.00000   0.00000   0.39659   0.00000
  13        7PZ         0.00000  -0.01080   0.00000   0.00000   0.17459
  14        8D 0        0.00000   0.00000   0.00000   0.00000   0.00000
  15        8D+1        0.00000   0.00000   0.00000   0.00000   0.00000
  16        8D-1        0.00000   0.00000   0.00000   0.00000   0.00000
  17        8D+2        0.00000   0.00000   0.00000   0.00000   0.00000
  18        8D-2        0.00000   0.00000   0.00000   0.00000   0.00000
  19 2   H  1S          0.00000  -0.00631   0.00000   0.00000   0.13412
  20        2S          0.00000  -0.00131   0.00000   0.00000   0.02526
  21        3PX         0.00000   0.00000   0.00459   0.00000   0.00000
  22        3PY        -0.00017   0.00000   0.00000   0.00459   0.00000
  23        3PZ         0.00000  -0.00117   0.00000   0.00000   0.01506
                          11        12        13        14        15
  11        7PX         0.49509
  12        7PY         0.00000   0.49509
  13        7PZ         0.00000   0.00000   0.15475
  14        8D 0        0.00000   0.00000   0.00000   0.00672
  15        8D+1        0.00000   0.00000   0.00000   0.00000   0.00052
  16        8D-1        0.00000   0.00000   0.00000   0.00000   0.00000
  17        8D+2        0.00000   0.00000   0.00000   0.00000   0.00000
  18        8D-2        0.00000   0.00000   0.00000   0.00000   0.00000
  19 2   H  1S          0.00000   0.00000   0.11741   0.01543   0.00000
  20        2S          0.00000   0.00000   0.03191   0.00101   0.00000
  21        3PX         0.00573   0.00000   0.00000   0.00000   0.00023
  22        3PY         0.00000   0.00573   0.00000   0.00000   0.00000
  23        3PZ         0.00000   0.00000   0.00250   0.00144   0.00000
                          16        17        18        19        20
  16        8D-1        0.00052
  17        8D+2        0.00000   0.00000
  18        8D-2        0.00000   0.00000   0.00000
  19 2   H  1S          0.00000   0.00000   0.00000   0.34786
  20        2S          0.00000   0.00000   0.00000   0.05751   0.02224
  21        3PX         0.00000   0.00000   0.00000   0.00000   0.00000
  22        3PY         0.00023   0.00000   0.00000   0.00000   0.00000
  23        3PZ         0.00000   0.00000   0.00000   0.00000   0.00000
                          21        22        23
  21        3PX         0.00113
  22        3PY         0.00000   0.00113
  23        3PZ         0.00000   0.00000   0.00404
     Gross orbital populations:
                           1
   1 1   Cl 1S          2.00010
   2        2S          2.00548
   3        3S          0.93423
   4        4S          0.96929
   5        5PX         2.00028
   6        5PY         2.00028
   7        5PZ         1.99945
   8        6PX         1.11346
   9        6PY         1.11346
  10        6PZ         0.79138
  11        7PX         0.87401
  12        7PY         0.87401
  13        7PZ         0.47035
  14        8D 0        0.02460
  15        8D+1        0.00075
  16        8D-1        0.00075
  17        8D+2        0.00000
  18        8D-2        0.00000
  19 2   H  1S          0.66942
  20        2S          0.10588
  21        3PX         0.01151
  22        3PY         0.01151
  23        3PZ         0.02981
          Condensed to atoms (all electrons):
               1          2
     1  Cl  16.835138   0.336727
     2  H    0.336727   0.491408
 Mulliken charges:
               1
     1  Cl  -0.171865
     2  H    0.171865
 Sum of Mulliken charges =   0.00000
 Mulliken charges with hydrogens summed into heavy atoms:
               1
     1  Cl   0.000000
 APT charges:
               1
     1  Cl  -0.339881
     2  H    0.339881
 Sum of APT charges =   0.00000
 APT charges with hydrogens summed into heavy atoms:
               1
     1  Cl   0.000000
 Electronic spatial extent (au):  <R**2>=             33.6504
 Charge=              0.0000 electrons
 Dipole moment (field-independent basis, Debye):
    X=              0.0000    Y=              0.0000    Z=             -1.4152  Tot=              1.4152
 Quadrupole moment (field-independent basis, Debye-Ang):
   XX=            -13.8353   YY=            -13.8353   ZZ=            -10.2160
   XY=              0.0000   XZ=              0.0000   YZ=              0.0000
 Traceless Quadrupole moment (field-independent basis, Debye-Ang):
   XX=             -1.2064   YY=             -1.2064   ZZ=              2.4128
   XY=              0.0000   XZ=              0.0000   YZ=              0.0000
 Octapole moment (field-independent basis, Debye-Ang**2):
  XXX=              0.0000  YYY=              0.0000  ZZZ=             -2.9135  XYY=              0.0000
  XXY=              0.0000  XXZ=             -0.2726  XZZ=              0.0000  YZZ=              0.0000
  YYZ=             -0.2726  XYZ=              0.0000
 Hexadecapole moment (field-independent basis, Debye-Ang**3):
 XXXX=            -14.9893 YYYY=            -14.9893 ZZZZ=            -12.9570 XXXY=              0.0000
 XXXZ=              0.0000 YYYX=              0.0000 YYYZ=              0.0000 ZZZX=              0.0000
 ZZZY=              0.0000 XXYY=             -4.9964 XXZZ=             -5.4011 YYZZ=             -5.4011
 XXYZ=              0.0000 YYXZ=              0.0000 ZZXY=              0.0000
 N-N= 7.055696145600D+00 E-N=-1.109994987471D+03  KE= 4.600879007450D+02
 Symmetry A1   KE= 3.685857171287D+02
 Symmetry A2   KE= 0.000000000000D+00
 Symmetry B1   KE= 4.575109180814D+01
 Symmetry B2   KE= 4.575109180814D+01
 Orbital energies and kinetic energies (alpha):
                                 1                 2
   1         O              -104.843249        137.133307
   2         O               -10.568704         21.787074
   3         O                -8.036674         20.627449
   4         O                -8.032925         20.649653
   5         O                -8.032925         20.649653
   6         O                -1.113561          2.798832
   7         O                -0.620646          1.946197
   8         O                -0.471457          2.225893
   9         O                -0.471457          2.225893
  10         V                 0.148932          1.027867
  11         V                 0.494653          1.278273
  12         V                 0.750994          3.195828
  13         V                 0.750994          3.195828
  14         V                 0.756183          3.305661
  15         V                 0.879437          1.914815
  16         V                 0.879437          1.914815
  17         V                 0.970660          3.537435
  18         V                 0.981114          2.100000
  19         V                 0.981114          2.100000
  20         V                 1.350137          2.602771
  21         V                 1.707351          2.302585
  22         V                 1.707351          2.302585
  23         V                 2.423300          4.123510
 Total kinetic energy from orbitals= 4.600879007450D+02
  Exact polarizability:   0.000   0.000   0.000   0.000   0.000   0.000
 Approx polarizability:   6.217   0.000   6.217   0.000   0.000  12.064
 No NMR shielding tensors so no spin-rotation constants.
 Leave Link  601 at Wed Sep 03 18:00:38 2025, MaxMem=   536870912 cpu:               0.0 elap:               0.0
 (Enter C:\G16W\l701.exe)
 ... and contract with generalized density number  0.
 Compute integral second derivatives.
 Leave Link  701 at Wed Sep 03 18:00:38 2025, MaxMem=   536870912 cpu:               0.0 elap:               0.0
 (Enter C:\G16W\l702.exe)
 L702 exits ... SP integral derivatives will be done elsewhere.
 Leave Link  702 at Wed Sep 03 18:00:38 2025, MaxMem=   536870912 cpu:               0.0 elap:               0.0
 (Enter C:\G16W\l703.exe)
 Integral derivatives from FoFJK, PRISM(SPDF).
 Compute integral second derivatives, UseDBF=F ICtDFT=           0.
 Calling FoFJK, ICntrl=    100147 FMM=F ISym2X=1 I1Cent= 0 IOpClX= 0 NMat=1 NMatS=1 NMatT=0.
 FoFJK:  IHMeth= 1 ICntrl=  100147 DoSepK=F KAlg= 0 I1Cent=           0 FoldK=F
 IRaf=         0 NMat=       1 IRICut=       1 DoRegI=T DoRafI=F ISym2E= 1 IDoP0=0 IntGTp=1.
 FoFCou: FMM=F IPFlag=           0 FMFlag=      100000 FMFlg1=         800
         NFxFlg=           0 DoJE=F BraDBF=F KetDBF=F FulRan=T
         wScrn=  0.000000 ICntrl=    100147 IOpCl=  0 I1Cent=           0 NGrid=           0
         NMat0=    1 NMatS0=      1 NMatT0=    0 NMatD0=    1 NMtDS0=    0 NMtDT0=    0
 Petite list used in FoFCou.
 Leave Link  703 at Wed Sep 03 18:00:39 2025, MaxMem=   536870912 cpu:               1.0 elap:               0.1
 (Enter C:\G16W\l716.exe)
 Dipole        = 0.00000000D+00 0.00000000D+00-5.56775868D-01
 Polarizability= 0.00000000D+00 0.00000000D+00 0.00000000D+00
                 0.00000000D+00 0.00000000D+00 0.00000000D+00
 ***** Axes restored to original set *****
 -------------------------------------------------------------------
 Center     Atomic                   Forces (Hartrees/Bohr)
 Number     Number              X              Y              Z
 -------------------------------------------------------------------
      1       17           0.000000000    0.000000000   -0.001604369
      2        1           0.000000000    0.000000000    0.001604369
 -------------------------------------------------------------------
 Cartesian Forces:  Max     0.001604369 RMS     0.000926283
 Force constants in Cartesian coordinates: 
                1             2             3             4             5 
      1 -0.665882D-03
      2  0.000000D+00 -0.665882D-03
      3  0.000000D+00  0.000000D+00  0.372210D+00
      4  0.665882D-03  0.000000D+00  0.000000D+00 -0.665882D-03
      5  0.000000D+00  0.665882D-03  0.000000D+00  0.000000D+00 -0.665882D-03
      6  0.000000D+00  0.000000D+00 -0.372210D+00  0.000000D+00  0.000000D+00
                6 
      6  0.372210D+00
 FormGI is forming the generalized inverse of G from B-inverse, IUseBI=4.
 Force constants in internal coordinates: 
                1 
      1  0.372210D+00
 Leave Link  716 at Wed Sep 03 18:00:39 2025, MaxMem=   536870912 cpu:               0.0 elap:               0.0
 (Enter C:\G16W\l103.exe)

 GradGradGradGradGradGradGradGradGradGradGradGradGradGradGradGradGradGrad
 Berny optimization.
 Red2BG is reusing G-inverse.
 Internal  Forces:  Max     0.001604369 RMS     0.001604369
 Search for a local minimum.
 Step number   1 out of a maximum of   20
 All quantities printed in internal units (Hartrees-Bohrs-Radians)
 RMS Force = .16044D-02 SwitMx=.10000D-02 MixMth= 1
 Mixed Optimization -- RFO/linear search
 Second derivative matrix not updated -- analytic derivatives used.
 The second derivative matrix:
                          R1
           R1           0.37221
 ITU=  0
     Eigenvalues ---    0.37221
 RFO step:  Lambda=-6.91532417D-06 EMin= 3.72209997D-01
 Linear search not attempted -- first point.
 Iteration  1 RMS(Cart)=  0.00304785 RMS(Int)=  0.00000000
 Iteration  2 RMS(Cart)=  0.00000000 RMS(Int)=  0.00000000
 ITry= 1 IFail=0 DXMaxC= 2.16D-03 DCOld= 1.00D+10 DXMaxT= 3.00D-01 DXLimC= 3.00D+00 Rises=F
 ClnCor:  largest displacement from symmetrization is 0.00D+00 for atom     0.
 Variable       Old X    -DE/DX   Delta X   Delta X   Delta X     New X
                                 (Linear)    (Quad)   (Total)
    R1        2.40940   0.00160   0.00000   0.00431   0.00431   2.41371
         Item               Value     Threshold  Converged?
 Maximum Force            0.001604     0.000015     NO 
 RMS     Force            0.001604     0.000010     NO 
 Maximum Displacement     0.002155     0.000060     NO 
 RMS     Displacement     0.003048     0.000040     NO 
 Predicted change in Energy=-3.457726D-06
 Lowest energy point so far.  Saving SCF results.
 GradGradGradGradGradGradGradGradGradGradGradGradGradGradGradGradGradGrad

 Leave Link  103 at Wed Sep 03 18:00:39 2025, MaxMem=   536870912 cpu:               0.0 elap:               0.0
 (Enter C:\G16W\l202.exe)
                          Input orientation:                          
 ---------------------------------------------------------------------
 Center     Atomic      Atomic             Coordinates (Angstroms)
 Number     Number       Type             X           Y           Z
 ---------------------------------------------------------------------
      1         17           0        0.000000    0.000000   -0.001140
      2          1           0        0.000000    0.000000    1.276140
 ---------------------------------------------------------------------
 Stoichiometry    ClH
 Framework group  C*V[C*(HCl)]
 Deg. of freedom     1
 Full point group                 C*V     NOp   4
 RotChk:  IX=0 Diff= 0.00D+00
 Largest Abelian subgroup         C2V     NOp   4
 Largest concise Abelian subgroup C1      NOp   1
                         Standard orientation:                         
 ---------------------------------------------------------------------
 Center     Atomic      Atomic             Coordinates (Angstroms)
 Number     Number       Type             X           Y           Z
 ---------------------------------------------------------------------
      1         17           0        0.000000    0.000000    0.070960
      2          1           0        0.000000    0.000000   -1.206321
 ---------------------------------------------------------------------
 Rotational constants (GHZ):           0.0000000         316.2269518         316.2269518
 Leave Link  202 at Wed Sep 03 18:00:39 2025, MaxMem=   536870912 cpu:               0.0 elap:               0.0
 (Enter C:\G16W\l301.exe)
 Standard basis: CC-pVDZ (5D, 7F)
 Ernie: Thresh=  0.10000D-02 Tol=  0.10000D-05 Strict=F.
 Ernie:  10 primitive shells out of 55 were deleted.
 There are    13 symmetry adapted cartesian basis functions of A1  symmetry.
 There are     1 symmetry adapted cartesian basis functions of A2  symmetry.
 There are     5 symmetry adapted cartesian basis functions of B1  symmetry.
 There are     5 symmetry adapted cartesian basis functions of B2  symmetry.
 There are    12 symmetry adapted basis functions of A1  symmetry.
 There are     1 symmetry adapted basis functions of A2  symmetry.
 There are     5 symmetry adapted basis functions of B1  symmetry.
 There are     5 symmetry adapted basis functions of B2  symmetry.
    23 basis functions,    78 primitive gaussians,    24 cartesian basis functions
     9 alpha electrons        9 beta electrons
       nuclear repulsion energy         7.0430963703 Hartrees.
 IExCor=    0 DFT=F Ex=HF Corr=None ExCW=0 ScaHFX=  1.000000
 ScaDFX=  1.000000  1.000000  1.000000  1.000000 ScalE2=  1.000000  1.000000
 IRadAn=      5 IRanWt=     -1 IRanGd=            0 ICorTp=0 IEmpDi=  4
 NAtoms=    2 NActive=    2 NUniq=    2 SFac= 1.00D+00 NAtFMM=   60 NAOKFM=F Big=F
 Integral buffers will be    131072 words long.
 Raffenetti 1 integral format.
 Two-electron integral symmetry is turned on.
 Leave Link  301 at Wed Sep 03 18:00:39 2025, MaxMem=   536870912 cpu:               0.0 elap:               0.0
 (Enter C:\G16W\l302.exe)
 NPDir=0 NMtPBC=     1 NCelOv=     1 NCel=       1 NClECP=     1 NCelD=      1
         NCelK=      1 NCelE2=     1 NClLst=     1 CellRange=     0.0.
 One-electron integrals computed using PRISM.
 One-electron integral symmetry used in STVInt
 NBasis=    23 RedAO= T EigKep=  4.99D-02  NBF=    12     1     5     5
 NBsUse=    23 1.00D-06 EigRej= -1.00D+00 NBFU=    12     1     5     5
 Leave Link  302 at Wed Sep 03 18:00:39 2025, MaxMem=   536870912 cpu:               0.0 elap:               0.0
 (Enter C:\G16W\l303.exe)
 DipDrv:  MaxL=1.
 Leave Link  303 at Wed Sep 03 18:00:39 2025, MaxMem=   536870912 cpu:               0.0 elap:               0.0
 (Enter C:\G16W\l401.exe)
 Initial guess from the checkpoint file:  "HCl.chk"
 B after Tr=     0.000000    0.000000    0.000000
         Rot=    1.000000    0.000000    0.000000    0.000000 Ang=   0.00 deg.
 Guess basis will be translated and rotated to current coordinates.
 JPrj=2 DoOrth=T DoCkMO=T.
 Initial guess orbital symmetries:
       Occupied  (SG) (SG) (SG) (PI) (PI) (SG) (SG) (PI) (PI)
       Virtual   (SG) (SG) (PI) (PI) (SG) (PI) (PI) (SG) (DLTA)
                 (DLTA) (SG) (PI) (PI) (SG)
 The electronic state of the initial guess is 1-SG.
 Leave Link  401 at Wed Sep 03 18:00:39 2025, MaxMem=   536870912 cpu:               0.0 elap:               0.0
 (Enter C:\G16W\l502.exe)
 Keep R1 ints in memory in symmetry-blocked form, NReq=882570.
 FoFCou: FMM=F IPFlag=           0 FMFlag=           0 FMFlg1=           0
         NFxFlg=           0 DoJE=F BraDBF=F KetDBF=F FulRan=T
         wScrn=  0.000000 ICntrl=       600 IOpCl=  0 I1Cent=           0 NGrid=           0
         NMat0=    1 NMatS0=    276 NMatT0=    0 NMatD0=    1 NMtDS0=    0 NMtDT0=    0
 Petite list used in FoFCou.
 Closed shell SCF:
 Using DIIS extrapolation, IDIIS=  1040.
 NGot=   536870912 LenX=   536856691 LenY=   536855674
 Requested convergence on RMS density matrix=1.00D-08 within 128 cycles.
 Requested convergence on MAX density matrix=1.00D-06.
 Requested convergence on             energy=1.00D-06.
 No special actions if energy rises.

 Cycle   1  Pass 1  IDiag  1:
 E= -460.089448952558    
 DIIS: error= 2.06D-04 at cycle   1 NSaved=   1.
 NSaved= 1 IEnMin= 1 EnMin= -460.089448952558     IErMin= 1 ErrMin= 2.06D-04
 ErrMax= 2.06D-04  0.00D+00 EMaxC= 1.00D-01 BMatC= 5.85D-07 BMatP= 5.85D-07
 IDIUse=3 WtCom= 9.98D-01 WtEn= 2.06D-03
 Coeff-Com:  0.100D+01
 Coeff-En:   0.100D+01
 Coeff:      0.100D+01
 Gap=     0.620 Goal=   None    Shift=    0.000
 RMSDP=4.14D-05 MaxDP=4.53D-04              OVMax= 3.68D-04

 Cycle   2  Pass 1  IDiag  1:
 E= -460.089449774458     Delta-E=       -0.000000821900 Rises=F Damp=F
 DIIS: error= 3.55D-05 at cycle   2 NSaved=   2.
 NSaved= 2 IEnMin= 2 EnMin= -460.089449774458     IErMin= 2 ErrMin= 3.55D-05
 ErrMax= 3.55D-05  0.00D+00 EMaxC= 1.00D-01 BMatC= 2.61D-08 BMatP= 5.85D-07
 IDIUse=1 WtCom= 1.00D+00 WtEn= 0.00D+00
 Coeff-Com: -0.829D-01 0.108D+01
 Coeff:     -0.829D-01 0.108D+01
 Gap=     0.620 Goal=   None    Shift=    0.000
 RMSDP=1.00D-05 MaxDP=6.71D-05 DE=-8.22D-07 OVMax= 9.78D-05

 Cycle   3  Pass 1  IDiag  1:
 E= -460.089449819100     Delta-E=       -0.000000044642 Rises=F Damp=F
 DIIS: error= 8.12D-06 at cycle   3 NSaved=   3.
 NSaved= 3 IEnMin= 3 EnMin= -460.089449819100     IErMin= 3 ErrMin= 8.12D-06
 ErrMax= 8.12D-06  0.00D+00 EMaxC= 1.00D-01 BMatC= 1.82D-09 BMatP= 2.61D-08
 IDIUse=1 WtCom= 1.00D+00 WtEn= 0.00D+00
 Coeff-Com: -0.439D-01 0.830D-01 0.961D+00
 Coeff:     -0.439D-01 0.830D-01 0.961D+00
 Gap=     0.620 Goal=   None    Shift=    0.000
 RMSDP=2.44D-06 MaxDP=1.58D-05 DE=-4.46D-08 OVMax= 2.79D-05

 Cycle   4  Pass 1  IDiag  1:
 E= -460.089449822176     Delta-E=       -0.000000003076 Rises=F Damp=F
 DIIS: error= 1.69D-06 at cycle   4 NSaved=   4.
 NSaved= 4 IEnMin= 4 EnMin= -460.089449822176     IErMin= 4 ErrMin= 1.69D-06
 ErrMax= 1.69D-06  0.00D+00 EMaxC= 1.00D-01 BMatC= 6.17D-11 BMatP= 1.82D-09
 IDIUse=1 WtCom= 1.00D+00 WtEn= 0.00D+00
 Coeff-Com:  0.879D-02-0.456D-01-0.167D+00 0.120D+01
 Coeff:      0.879D-02-0.456D-01-0.167D+00 0.120D+01
 Gap=     0.620 Goal=   None    Shift=    0.000
 RMSDP=7.68D-07 MaxDP=6.46D-06 DE=-3.08D-09 OVMax= 9.26D-06

 Cycle   5  Pass 1  IDiag  1:
 E= -460.089449822338     Delta-E=       -0.000000000162 Rises=F Damp=F
 DIIS: error= 2.45D-07 at cycle   5 NSaved=   5.
 NSaved= 5 IEnMin= 5 EnMin= -460.089449822338     IErMin= 5 ErrMin= 2.45D-07
 ErrMax= 2.45D-07  0.00D+00 EMaxC= 1.00D-01 BMatC= 1.92D-12 BMatP= 6.17D-11
 IDIUse=1 WtCom= 1.00D+00 WtEn= 0.00D+00
 Coeff-Com:  0.857D-03-0.249D-02-0.222D-01 0.172D-01 0.101D+01
 Coeff:      0.857D-03-0.249D-02-0.222D-01 0.172D-01 0.101D+01
 Gap=     0.620 Goal=   None    Shift=    0.000
 RMSDP=1.13D-07 MaxDP=9.55D-07 DE=-1.62D-10 OVMax= 8.52D-07

 Cycle   6  Pass 1  IDiag  1:
 E= -460.089449822342     Delta-E=       -0.000000000004 Rises=F Damp=F
 DIIS: error= 6.33D-08 at cycle   6 NSaved=   6.
 NSaved= 6 IEnMin= 6 EnMin= -460.089449822342     IErMin= 6 ErrMin= 6.33D-08
 ErrMax= 6.33D-08  0.00D+00 EMaxC= 1.00D-01 BMatC= 1.16D-13 BMatP= 1.92D-12
 IDIUse=1 WtCom= 1.00D+00 WtEn= 0.00D+00
 Coeff-Com: -0.599D-03 0.319D-02 0.114D-01-0.783D-01-0.362D-01 0.110D+01
 Coeff:     -0.599D-03 0.319D-02 0.114D-01-0.783D-01-0.362D-01 0.110D+01
 Gap=     0.620 Goal=   None    Shift=    0.000
 RMSDP=2.87D-08 MaxDP=2.85D-07 DE=-4.15D-12 OVMax= 3.01D-07

 Cycle   7  Pass 1  IDiag  1:
 E= -460.089449822344     Delta-E=       -0.000000000002 Rises=F Damp=F
 DIIS: error= 1.18D-08 at cycle   7 NSaved=   7.
 NSaved= 7 IEnMin= 7 EnMin= -460.089449822344     IErMin= 7 ErrMin= 1.18D-08
 ErrMax= 1.18D-08  0.00D+00 EMaxC= 1.00D-01 BMatC= 3.46D-15 BMatP= 1.16D-13
 IDIUse=1 WtCom= 1.00D+00 WtEn= 0.00D+00
 Coeff-Com:  0.148D-03-0.834D-03-0.306D-02 0.237D-01-0.159D-01-0.332D+00
 Coeff-Com:  0.133D+01
 Coeff:      0.148D-03-0.834D-03-0.306D-02 0.237D-01-0.159D-01-0.332D+00
 Coeff:      0.133D+01
 Gap=     0.620 Goal=   None    Shift=    0.000
 RMSDP=4.41D-09 MaxDP=2.84D-08 DE=-1.59D-12 OVMax= 4.72D-08

 SCF Done:  E(RHF) =  -460.089449822     A.U. after    7 cycles
            NFock=  7  Conv=0.44D-08     -V/T= 2.0000
 KE= 4.600843465739D+02 PE=-1.109967685193D+03 EE= 1.827507924263D+02
 Leave Link  502 at Wed Sep 03 18:00:39 2025, MaxMem=   536870912 cpu:               0.0 elap:               0.1
 (Enter C:\G16W\l701.exe)
 ... and contract with generalized density number  0.
 Compute integral first derivatives.
 Leave Link  701 at Wed Sep 03 18:00:39 2025, MaxMem=   536870912 cpu:               0.0 elap:               0.0
 (Enter C:\G16W\l702.exe)
 L702 exits ... SP integral derivatives will be done elsewhere.
 Leave Link  702 at Wed Sep 03 18:00:39 2025, MaxMem=   536870912 cpu:               0.0 elap:               0.0
 (Enter C:\G16W\l703.exe)
 Integral derivatives from FoFJK, PRISM(SPDF).
 Compute integral first derivatives, UseDBF=F ICtDFT=           0.
 Calling FoFJK, ICntrl=      2127 FMM=F ISym2X=1 I1Cent= 0 IOpClX= 0 NMat=1 NMatS=1 NMatT=0.
 FoFJK:  IHMeth= 1 ICntrl=    2127 DoSepK=F KAlg= 0 I1Cent=           0 FoldK=F
 IRaf=         0 NMat=       1 IRICut=       1 DoRegI=T DoRafI=F ISym2E= 1 IDoP0=0 IntGTp=1.
 FoFCou: FMM=F IPFlag=           0 FMFlag=      100000 FMFlg1=         800
         NFxFlg=           0 DoJE=F BraDBF=F KetDBF=F FulRan=T
         wScrn=  0.000000 ICntrl=      2127 IOpCl=  0 I1Cent=           0 NGrid=           0
         NMat0=    1 NMatS0=      1 NMatT0=    0 NMatD0=    1 NMtDS0=    0 NMtDT0=    0
 Petite list used in FoFCou.
 Leave Link  703 at Wed Sep 03 18:00:39 2025, MaxMem=   536870912 cpu:               0.0 elap:               0.1
 (Enter C:\G16W\l716.exe)
 Dipole        = 0.00000000D+00 0.00000000D+00-5.57743229D-01
 ***** Axes restored to original set *****
 -------------------------------------------------------------------
 Center     Atomic                   Forces (Hartrees/Bohr)
 Number     Number              X              Y              Z
 -------------------------------------------------------------------
      1       17           0.000000000    0.000000000   -0.000009826
      2        1           0.000000000    0.000000000    0.000009826
 -------------------------------------------------------------------
 Cartesian Forces:  Max     0.000009826 RMS     0.000005673
 Leave Link  716 at Wed Sep 03 18:00:39 2025, MaxMem=   536870912 cpu:               0.0 elap:               0.0
 (Enter C:\G16W\l103.exe)

 GradGradGradGradGradGradGradGradGradGradGradGradGradGradGradGradGradGrad
 Berny optimization.
 Using GEDIIS/GDIIS optimizer.
 Red2BG is reusing G-inverse.
 Internal  Forces:  Max     0.000009826 RMS     0.000009826
 Search for a local minimum.
 Step number   2 out of a maximum of   20
 All quantities printed in internal units (Hartrees-Bohrs-Radians)
 RMS Force = .98255D-05 SwitMx=.10000D-02 MixMth= 2
 Mixed Optimization -- En-DIIS/RFO-DIIS
 Update second derivatives using D2CorX and points    1    2
 DE= -3.47D-06 DEPred=-3.46D-06 R= 1.00D+00
 TightC=F SS=  1.41D+00  RLast= 4.31D-03 DXNew= 5.0454D-01 1.2931D-02
 Trust test= 1.00D+00 RLast= 4.31D-03 DXMaxT set to 3.00D-01
 The second derivative matrix:
                          R1
           R1           0.36994
 ITU=  1  0
 Use linear search instead of GDIIS.
     Eigenvalues ---    0.36994
 RFO step:  Lambda= 0.00000000D+00 EMin= 3.69937375D-01
 Quartic linear search produced a step of  0.00620.
 Iteration  1 RMS(Cart)=  0.00001890 RMS(Int)=  0.00000000
 Iteration  2 RMS(Cart)=  0.00000000 RMS(Int)=  0.00000000
 ITry= 1 IFail=0 DXMaxC= 1.34D-05 DCOld= 1.00D+10 DXMaxT= 3.00D-01 DXLimC= 3.00D+00 Rises=F
 ClnCor:  largest displacement from symmetrization is 0.00D+00 for atom     0.
 Variable       Old X    -DE/DX   Delta X   Delta X   Delta X     New X
                                 (Linear)    (Quad)   (Total)
    R1        2.41371   0.00001   0.00003   0.00000   0.00003   2.41374
         Item               Value     Threshold  Converged?
 Maximum Force            0.000010     0.000015     YES
 RMS     Force            0.000010     0.000010     YES
 Maximum Displacement     0.000013     0.000060     YES
 RMS     Displacement     0.000019     0.000040     YES
 Predicted change in Energy=-1.304773D-10
 Optimization completed.
    -- Stationary point found.
                           ----------------------------
                           !   Optimized Parameters   !
                           ! (Angstroms and Degrees)  !
 --------------------------                            --------------------------
 ! Name  Definition              Value          Derivative Info.                !
 --------------------------------------------------------------------------------
 ! R1    R(1,2)                  1.2773         -DE/DX =    0.0                 !
 --------------------------------------------------------------------------------
 Lowest energy point so far.  Saving SCF results.
 Largest change from initial coordinates is atom    2       0.002 Angstoms.
 GradGradGradGradGradGradGradGradGradGradGradGradGradGradGradGradGradGrad

 Leave Link  103 at Wed Sep 03 18:00:39 2025, MaxMem=   536870912 cpu:               0.0 elap:               0.0
 (Enter C:\G16W\l202.exe)
                          Input orientation:                          
 ---------------------------------------------------------------------
 Center     Atomic      Atomic             Coordinates (Angstroms)
 Number     Number       Type             X           Y           Z
 ---------------------------------------------------------------------
      1         17           0        0.000000    0.000000   -0.001140
      2          1           0        0.000000    0.000000    1.276140
 ---------------------------------------------------------------------
 Stoichiometry    ClH
 Framework group  C*V[C*(HCl)]
 Deg. of freedom     1
 Full point group                 C*V     NOp   4
 RotChk:  IX=0 Diff= 0.00D+00
 Largest Abelian subgroup         C2V     NOp   4
 Largest concise Abelian subgroup C1      NOp   1
                         Standard orientation:                         
 ---------------------------------------------------------------------
 Center     Atomic      Atomic             Coordinates (Angstroms)
 Number     Number       Type             X           Y           Z
 ---------------------------------------------------------------------
      1         17           0        0.000000    0.000000    0.070960
      2          1           0        0.000000    0.000000   -1.206321
 ---------------------------------------------------------------------
 Rotational constants (GHZ):           0.0000000         316.2269518         316.2269518
 Leave Link  202 at Wed Sep 03 18:00:39 2025, MaxMem=   536870912 cpu:               0.0 elap:               0.0
 (Enter C:\G16W\l601.exe)
 Copying SCF densities to generalized density rwf, IOpCl= 0 IROHF=0.

 **********************************************************************

            Population analysis using the SCF Density.

 **********************************************************************

 Orbital symmetries:
       Occupied  (SG) (SG) (SG) (PI) (PI) (SG) (SG) (PI) (PI)
       Virtual   (SG) (SG) (PI) (PI) (SG) (PI) (PI) (SG) (DLTA)
                 (DLTA) (SG) (PI) (PI) (SG)
 The electronic state is 1-SG.
 Alpha  occ. eigenvalues -- -104.84336 -10.56875  -8.03671  -8.03298  -8.03298
 Alpha  occ. eigenvalues --   -1.11313  -0.62017  -0.47140  -0.47140
 Alpha virt. eigenvalues --    0.14835   0.49484   0.75103   0.75103   0.75606
 Alpha virt. eigenvalues --    0.87962   0.87962   0.96996   0.98116   0.98116
 Alpha virt. eigenvalues --    1.34846   1.70604   1.70604   2.41961
     Molecular Orbital Coefficients:
                           1         2         3         4         5
                           O         O         O         O         O
     Eigenvalues --  -104.84336 -10.56875  -8.03671  -8.03298  -8.03298
   1 1   Cl 1S          1.00143  -0.27922  -0.00156   0.00000   0.00000
   2        2S         -0.00498   1.03658   0.00571   0.00000   0.00000
   3        3S          0.00080   0.03556  -0.00082   0.00000   0.00000
   4        4S         -0.00050  -0.01131   0.00028   0.00000   0.00000
   5        5PX         0.00000   0.00000   0.00000   0.99972   0.00000
   6        5PY         0.00000   0.00000   0.00000   0.00000   0.99972
   7        5PZ        -0.00005  -0.00496   0.99912   0.00000   0.00000
   8        6PX         0.00000   0.00000   0.00000   0.00046   0.00000
   9        6PY         0.00000   0.00000   0.00000   0.00000   0.00046
  10        6PZ        -0.00003  -0.00172   0.00224   0.00000   0.00000
  11        7PX         0.00000   0.00000   0.00000   0.00131   0.00000
  12        7PY         0.00000   0.00000   0.00000   0.00000   0.00131
  13        7PZ         0.00006   0.00158   0.00068   0.00000   0.00000
  14        8D 0        0.00002   0.00065  -0.00029   0.00000   0.00000
  15        8D+1        0.00000   0.00000   0.00000  -0.00023   0.00000
  16        8D-1        0.00000   0.00000   0.00000   0.00000  -0.00023
  17        8D+2        0.00000   0.00000   0.00000   0.00000   0.00000
  18        8D-2        0.00000   0.00000   0.00000   0.00000   0.00000
  19 2   H  1S         -0.00003  -0.00069  -0.00067   0.00000   0.00000
  20        2S          0.00012   0.00258   0.00025   0.00000   0.00000
  21        3PX         0.00000   0.00000   0.00000   0.00006   0.00000
  22        3PY         0.00000   0.00000   0.00000   0.00000   0.00006
  23        3PZ        -0.00005  -0.00106  -0.00031   0.00000   0.00000
                           6         7         8         9        10
                           O         O         O         O         V
     Eigenvalues --    -1.11313  -0.62017  -0.47140  -0.47140   0.14835
   1 1   Cl 1S          0.07941   0.02350   0.00000   0.00000  -0.02003
   2        2S         -0.28651  -0.09219   0.00000   0.00000   0.12728
   3        3S          0.47609   0.14037   0.00000   0.00000  -0.05364
   4        4S          0.49288   0.28485   0.00000   0.00000  -0.94449
   5        5PX         0.00000   0.00000   0.00000  -0.26535   0.00000
   6        5PY         0.00000   0.00000  -0.26535   0.00000   0.00000
   7        5PZ         0.03271  -0.21795   0.00000   0.00000  -0.12309
   8        6PX         0.00000   0.00000   0.00000   0.64348   0.00000
   9        6PY         0.00000   0.00000   0.64348   0.00000   0.00000
  10        6PZ        -0.06201   0.50455   0.00000   0.00000   0.28401
  11        7PX         0.00000   0.00000   0.00000   0.49758   0.00000
  12        7PY         0.00000   0.00000   0.49758   0.00000   0.00000
  13        7PZ        -0.01090   0.27825   0.00000   0.00000   0.84360
  14        8D 0        0.01375  -0.05628   0.00000   0.00000   0.04067
  15        8D+1        0.00000   0.00000   0.00000  -0.01605   0.00000
  16        8D-1        0.00000   0.00000  -0.01605   0.00000   0.00000
  17        8D+2        0.00000   0.00000   0.00000   0.00000   0.00000
  18        8D-2        0.00000   0.00000   0.00000   0.00000   0.00000
  19 2   H  1S          0.18391  -0.37377   0.00000   0.00000   0.19350
  20        2S          0.01657  -0.10462   0.00000   0.00000   1.53179
  21        3PX         0.00000   0.00000   0.00000   0.02366   0.00000
  22        3PY         0.00000   0.00000   0.02366   0.00000   0.00000
  23        3PZ         0.03020  -0.03320   0.00000   0.00000   0.00615
                          11        12        13        14        15
                           V         V         V         V         V
     Eigenvalues --     0.49484   0.75103   0.75103   0.75606   0.87962
   1 1   Cl 1S         -0.00191   0.00000   0.00000  -0.04242   0.00000
   2        2S          0.03128   0.00000   0.00000  -0.04500   0.00000
   3        3S          0.02512   0.00000   0.00000  -0.60204   0.00000
   4        4S          0.08247   0.00000   0.00000   0.29134   0.00000
   5        5PX         0.00000  -0.30291   0.00000   0.00000  -0.02006
   6        5PY         0.00000   0.00000  -0.30291   0.00000   0.00000
   7        5PZ        -0.02697   0.00000   0.00000   0.27914   0.00000
   8        6PX         0.00000   1.20516   0.00000   0.00000   0.05773
   9        6PY         0.00000   0.00000   1.20516   0.00000   0.00000
  10        6PZ        -0.00344   0.00000   0.00000  -1.08849   0.00000
  11        7PX         0.00000  -1.19376   0.00000   0.00000   0.05439
  12        7PY         0.00000   0.00000  -1.19376   0.00000   0.00000
  13        7PZ         0.41263   0.00000   0.00000   1.27783   0.00000
  14        8D 0        0.37889   0.00000   0.00000  -0.10569   0.00000
  15        8D+1        0.00000  -0.02125   0.00000   0.00000   0.85749
  16        8D-1        0.00000   0.00000  -0.02125   0.00000   0.00000
  17        8D+2        0.00000   0.00000   0.00000   0.00000   0.00000
  18        8D-2        0.00000   0.00000   0.00000   0.00000   0.00000
  19 2   H  1S          1.01799   0.00000   0.00000  -0.13435   0.00000
  20        2S         -0.88943   0.00000   0.00000   0.57781   0.00000
  21        3PX         0.00000   0.02021   0.00000   0.00000  -0.32247
  22        3PY         0.00000   0.00000   0.02021   0.00000   0.00000
  23        3PZ        -0.04264   0.00000   0.00000   0.15885   0.00000
                          16        17        18        19        20
                           V         V         V         V         V
     Eigenvalues --     0.87962   0.96996   0.98116   0.98116   1.34846
   1 1   Cl 1S          0.00000  -0.11236   0.00000   0.00000  -0.04083
   2        2S          0.00000  -0.30856   0.00000   0.00000  -0.15478
   3        3S          0.00000  -1.85551   0.00000   0.00000  -0.74660
   4        4S          0.00000   2.64007   0.00000   0.00000   1.04853
   5        5PX         0.00000   0.00000   0.00000   0.00000   0.00000
   6        5PY        -0.02006   0.00000   0.00000   0.00000   0.00000
   7        5PZ         0.00000  -0.09815   0.00000   0.00000  -0.04686
   8        6PX         0.00000   0.00000   0.00000   0.00000   0.00000
   9        6PY         0.05773   0.00000   0.00000   0.00000   0.00000
  10        6PZ         0.00000   0.39623   0.00000   0.00000   0.28071
  11        7PX         0.00000   0.00000   0.00000   0.00000   0.00000
  12        7PY         0.05439   0.00000   0.00000   0.00000   0.00000
  13        7PZ         0.00000  -0.92418   0.00000   0.00000  -0.74561
  14        8D 0        0.00000  -0.13242   0.00000   0.00000   0.89496
  15        8D+1        0.00000   0.00000   0.00000   0.00000   0.00000
  16        8D-1        0.85749   0.00000   0.00000   0.00000   0.00000
  17        8D+2        0.00000   0.00000   1.00000   0.00000   0.00000
  18        8D-2        0.00000   0.00000   0.00000   1.00000   0.00000
  19 2   H  1S          0.00000   0.23380   0.00000   0.00000  -0.92126
  20        2S          0.00000  -1.31075   0.00000   0.00000  -0.05355
  21        3PX         0.00000   0.00000   0.00000   0.00000   0.00000
  22        3PY        -0.32247   0.00000   0.00000   0.00000   0.00000
  23        3PZ         0.00000  -0.23873   0.00000   0.00000   0.22368
                          21        22        23
                           V         V         V
     Eigenvalues --     1.70604   1.70604   2.41961
   1 1   Cl 1S          0.00000   0.00000  -0.01401
   2        2S          0.00000   0.00000   0.14774
   3        3S          0.00000   0.00000  -0.00819
   4        4S          0.00000   0.00000  -1.17081
   5        5PX         0.00000   0.01668   0.00000
   6        5PY         0.01668   0.00000   0.00000
   7        5PZ         0.00000   0.00000  -0.18598
   8        6PX         0.00000  -0.02445   0.00000
   9        6PY        -0.02445   0.00000   0.00000
  10        6PZ         0.00000   0.00000   0.89015
  11        7PX         0.00000  -0.24427   0.00000
  12        7PY        -0.24427   0.00000   0.00000
  13        7PZ         0.00000   0.00000   0.51640
  14        8D 0        0.00000   0.00000  -0.95736
  15        8D+1        0.00000   0.60700   0.00000
  16        8D-1        0.60700   0.00000   0.00000
  17        8D+2        0.00000   0.00000   0.00000
  18        8D-2        0.00000   0.00000   0.00000
  19 2   H  1S          0.00000   0.00000   0.94164
  20        2S          0.00000   0.00000   0.61527
  21        3PX         0.00000   1.03361   0.00000
  22        3PY         1.03361   0.00000   0.00000
  23        3PZ         0.00000   0.00000   1.52458
     Density Matrix:
                           1         2         3         4         5
   1 1   Cl 1S          2.17537
   2        2S         -0.63870   2.33028
   3        3S          0.06396  -0.22500   0.49526
   4        4S          0.09699  -0.35841   0.54848   0.64840
   5        5PX         0.00000   0.00000   0.00000   0.00000   2.13971
   6        5PY         0.00000   0.00000   0.00000   0.00000   0.00000
   7        5PZ        -0.00548   0.02256  -0.03203  -0.09125   0.00000
   8        6PX         0.00000   0.00000   0.00000   0.00000  -0.34057
   9        6PY         0.00000   0.00000   0.00000   0.00000   0.00000
  10        6PZ         0.01476  -0.06103   0.08248   0.22636   0.00000
  11        7PX         0.00000   0.00000   0.00000   0.00000  -0.26144
  12        7PY         0.00000   0.00000   0.00000   0.00000   0.00000
  13        7PZ         0.01058  -0.04177   0.06785   0.14774   0.00000
  14        8D 0       -0.00078   0.00384  -0.00266  -0.01852   0.00000
  15        8D+1        0.00000   0.00000   0.00000   0.00000   0.00806
  16        8D-1        0.00000   0.00000   0.00000   0.00000   0.00000
  17        8D+2        0.00000   0.00000   0.00000   0.00000   0.00000
  18        8D-2        0.00000   0.00000   0.00000   0.00000   0.00000
  19 2   H  1S          0.01196  -0.03789   0.07013  -0.03163   0.00000
  20        2S         -0.00349   0.01514  -0.01341  -0.04333   0.00000
  21        3PX         0.00000   0.00000   0.00000   0.00000  -0.01243
  22        3PY         0.00000   0.00000   0.00000   0.00000   0.00000
  23        3PZ         0.00372  -0.01339   0.01936   0.01088   0.00000
                           6         7         8         9        10
   6        5PY         2.13971
   7        5PZ         0.00000   2.09367
   8        6PX         0.00000   0.00000   0.82814
   9        6PY        -0.34057   0.00000   0.00000   0.82814
  10        6PZ         0.00000  -0.21950   0.00000   0.00000   0.51685
  11        7PX         0.00000   0.00000   0.64037   0.00000   0.00000
  12        7PY        -0.26144   0.00000   0.00000   0.64037   0.00000
  13        7PZ         0.00000  -0.12065   0.00000   0.00000   0.28214
  14        8D 0        0.00000   0.02484   0.00000   0.00000  -0.05850
  15        8D+1        0.00000   0.00000  -0.02066   0.00000   0.00000
  16        8D-1        0.00806   0.00000   0.00000  -0.02066   0.00000
  17        8D+2        0.00000   0.00000   0.00000   0.00000   0.00000
  18        8D-2        0.00000   0.00000   0.00000   0.00000   0.00000
  19 2   H  1S          0.00000   0.17363   0.00000   0.00000  -0.39998
  20        2S          0.00000   0.04716   0.00000   0.00000  -0.10764
  21        3PX         0.00000   0.00000   0.03045   0.00000   0.00000
  22        3PY        -0.01243   0.00000   0.00000   0.03045   0.00000
  23        3PZ         0.00000   0.01584   0.00000   0.00000  -0.03725
                          11        12        13        14        15
  11        7PX         0.49517
  12        7PY         0.00000   0.49517
  13        7PZ         0.00000   0.00000   0.15509
  14        8D 0        0.00000   0.00000  -0.03162   0.00671
  15        8D+1       -0.01598   0.00000   0.00000   0.00000   0.00052
  16        8D-1        0.00000  -0.01598   0.00000   0.00000   0.00000
  17        8D+2        0.00000   0.00000   0.00000   0.00000   0.00000
  18        8D-2        0.00000   0.00000   0.00000   0.00000   0.00000
  19 2   H  1S          0.00000   0.00000  -0.21202   0.04713   0.00000
  20        2S          0.00000   0.00000  -0.05858   0.01223   0.00000
  21        3PX         0.02355   0.00000   0.00000   0.00000  -0.00076
  22        3PY         0.00000   0.02355   0.00000   0.00000   0.00000
  23        3PZ         0.00000   0.00000  -0.01914   0.00457   0.00000
                          16        17        18        19        20
  16        8D-1        0.00052
  17        8D+2        0.00000   0.00000
  18        8D-2        0.00000   0.00000   0.00000
[...]
  10        6PZ         0.79078
  11        7PX         0.87408
  12        7PY         0.87408
  13        7PZ         0.47106
  14        8D 0        0.02454
  15        8D+1        0.00074
  16        8D-1        0.00074
  17        8D+2        0.00000
  18        8D-2        0.00000
  19 2   H  1S          0.66812
  20        2S          0.10665
  21        3PX         0.01143
  22        3PY         0.01143
  23        3PZ         0.02974
          Condensed to atoms (all electrons):
               1          2
     1  Cl  16.836488   0.336131
     2  H    0.336131   0.491249
 Mulliken charges:
               1
     1  Cl  -0.172620
     2  H    0.172620
 Sum of Mulliken charges =   0.00000
 Mulliken charges with hydrogens summed into heavy atoms:
               1
     1  Cl   0.000000
 APT charges:
               1
     1  Cl  -0.228848
     2  H    0.228848
 Sum of APT charges =   0.00000
 APT charges with hydrogens summed into heavy atoms:
               1
     1  Cl   0.000000
 Electronic spatial extent (au):  <R**2>=             33.6701
 Charge=              0.0000 electrons
 Dipole moment (field-independent basis, Debye):
    X=              0.0000    Y=              0.0000    Z=             -1.4176  Tot=              1.4176
 Quadrupole moment (field-independent basis, Debye-Ang):
   XX=            -13.8383   YY=            -13.8383   ZZ=            -10.2100
   XY=              0.0000   XZ=              0.0000   YZ=              0.0000
 Traceless Quadrupole moment (field-independent basis, Debye-Ang):
   XX=             -1.2094   YY=             -1.2094   ZZ=              2.4189
   XY=              0.0000   XZ=              0.0000   YZ=              0.0000
 Octapole moment (field-independent basis, Debye-Ang**2):
  XXX=              0.0000  YYY=              0.0000  ZZZ=             -2.9256  XYY=              0.0000
  XXY=              0.0000  XXZ=             -0.2706  XZZ=              0.0000  YZZ=              0.0000
  YYZ=             -0.2706  XYZ=              0.0000
 Hexadecapole moment (field-independent basis, Debye-Ang**3):
 XXXX=            -14.9945 YYYY=            -14.9945 ZZZZ=            -12.9596 XXXY=              0.0000
 XXXZ=              0.0000 YYYX=              0.0000 YYYZ=              0.0000 ZZZX=              0.0000
 ZZZY=              0.0000 XXYY=             -4.9982 XXZZ=             -5.4080 YYZZ=             -5.4080
 XXYZ=              0.0000 YYXZ=              0.0000 ZZXY=              0.0000
 N-N= 7.043096370317D+00 E-N=-1.109967685284D+03  KE= 4.600843465724D+02
 Symmetry A1   KE= 3.685821119879D+02
 Symmetry A2   KE=-4.127521898108D-51
 Symmetry B1   KE= 4.575111729224D+01
 Symmetry B2   KE= 4.575111729224D+01
 Orbital energies and kinetic energies (alpha):
                                 1                 2
   1         O              -104.843357        137.133313
   2         O               -10.568751         21.787161
   3         O                -8.036713         20.627483
   4         O                -8.032976         20.649687
   5         O                -8.032976         20.649687
   6         O                -1.113127          2.799587
   7         O                -0.620175          1.943513
   8         O                -0.471401          2.225872
   9         O                -0.471401          2.225872
  10         V                 0.148354          1.030247
  11         V                 0.494841          1.278169
  12         V                 0.751032          3.196453
  13         V                 0.751032          3.196453
  14         V                 0.756060          3.304683
  15         V                 0.879624          1.914352
  16         V                 0.879624          1.914352
  17         V                 0.969960          3.535802
  18         V                 0.981159          2.100000
  19         V                 0.981159          2.100000
  20         V                 1.348455          2.603471
  21         V                 1.706036          2.300426
  22         V                 1.706036          2.300426
  23         V                 2.419614          4.109960
 Total kinetic energy from orbitals= 4.600843465724D+02
  Exact polarizability:   6.316   0.000   6.316   0.000   0.000  12.877
 Approx polarizability:   6.216   0.000   6.216   0.000   0.000  12.104
 No NMR shielding tensors so no spin-rotation constants.
 Leave Link  601 at Wed Sep 03 18:00:40 2025, MaxMem=   536870912 cpu:               0.0 elap:               0.0
 (Enter C:\G16W\l701.exe)
 ... and contract with generalized density number  0.
 Compute integral second derivatives.
 Leave Link  701 at Wed Sep 03 18:00:40 2025, MaxMem=   536870912 cpu:               0.0 elap:               0.0
 (Enter C:\G16W\l702.exe)
 L702 exits ... SP integral derivatives will be done elsewhere.
 Leave Link  702 at Wed Sep 03 18:00:40 2025, MaxMem=   536870912 cpu:               0.0 elap:               0.0
 (Enter C:\G16W\l703.exe)
 Integral derivatives from FoFJK, PRISM(SPDF).
 Compute integral second derivatives, UseDBF=F ICtDFT=           0.
 Calling FoFJK, ICntrl=    100127 FMM=F ISym2X=1 I1Cent= 0 IOpClX= 0 NMat=1 NMatS=1 NMatT=0.
 FoFJK:  IHMeth= 1 ICntrl=  100127 DoSepK=F KAlg= 0 I1Cent=           0 FoldK=F
 IRaf=         0 NMat=       1 IRICut=       1 DoRegI=T DoRafI=F ISym2E= 1 IDoP0=0 IntGTp=1.
 FoFCou: FMM=F IPFlag=           0 FMFlag=      100000 FMFlg1=         800
         NFxFlg=           0 DoJE=F BraDBF=F KetDBF=F FulRan=T
         wScrn=  0.000000 ICntrl=    100127 IOpCl=  0 I1Cent=           0 NGrid=           0
         NMat0=    1 NMatS0=      1 NMatT0=    0 NMatD0=    1 NMtDS0=    0 NMtDT0=    0
 Petite list used in FoFCou.
 Leave Link  703 at Wed Sep 03 18:00:41 2025, MaxMem=   536870912 cpu:               1.0 elap:               0.1
 (Enter C:\G16W\l716.exe)
 Dipole        = 0.00000000D+00 0.00000000D+00-5.57743222D-01
 Polarizability= 6.31634156D+00 0.00000000D+00 6.31634156D+00
                 0.00000000D+00 0.00000000D+00 1.28774116D+01
 HyperPolar    = 0.00000000D+00 0.00000000D+00 0.00000000D+00
                 0.00000000D+00-1.44253665D+00 0.00000000D+00
                -1.44253665D+00 0.00000000D+00 0.00000000D+00
                -4.30715319D+01
 Full mass-weighted force constant matrix:
 Low frequencies ---  -10.4825  -10.4825    0.0035    0.0035    0.0036 3149.2872
 Diagonal vibrational polarizability:
        0.0000000       0.0000000       0.1359716
 Diagonal vibrational hyperpolarizability:
        0.0000000       0.0000000      -6.5747972
 Harmonic frequencies (cm**-1), IR intensities (KM/Mole), Raman scattering
 activities (A**4/AMU), depolarization ratios for plane and unpolarized
 incident light, reduced masses (AMU), force constants (mDyne/A),
 and normal coordinates:
                      1
                     SG
 Frequencies --   3149.2872
 Red. masses --      1.0360
 Frc consts  --      6.0540
 IR Inten    --     50.1118
 Raman Activ --    111.7174
 Depolar (P) --      0.3650
 Depolar (U) --      0.5347
  Atom  AN      X      Y      Z
     1  17     0.00   0.00  -0.03
     2   1     0.00   0.00   1.00

 -------------------
 - Thermochemistry -
 -------------------
 Temperature   298.150 Kelvin.  Pressure   1.00000 Atm.
 Atom     1 has atomic number 17 and mass  34.96885
 Atom     2 has atomic number  1 and mass   1.00783
 Molecular mass:    35.97668 amu.
 Principal axes and moments of inertia in atomic units:
                           1         2         3
     Eigenvalues --     0.00000   5.70711   5.70711
           X            0.00000   0.00000   1.00000
           Y            0.00000   1.00000   0.00000
           Z            1.00000   0.00000   0.00000
 This molecule is a prolate symmetric top.
 Rotational symmetry number  1.
 Rotational temperature (Kelvin)     15.17650
 Rotational constant (GHZ):         316.226952
 Zero-point vibrational energy      18836.9 (Joules/Mol)
                                    4.50213 (Kcal/Mol)
 Vibrational temperatures:   4531.12
          (Kelvin)
 
 Zero-point correction=                           0.007175 (Hartree/Particle)
 Thermal correction to Energy=                    0.009535
 Thermal correction to Enthalpy=                  0.010479
 Thermal correction to Gibbs Free Energy=        -0.010700
 Sum of electronic and zero-point Energies=           -460.082275
 Sum of electronic and thermal Energies=              -460.079915
 Sum of electronic and thermal Enthalpies=            -460.078971
 Sum of electronic and thermal Free Energies=         -460.100150
 
                     E (Thermal)             CV                S
                      KCal/Mol        Cal/Mol-Kelvin    Cal/Mol-Kelvin
 Total                    5.983              4.968             44.576
 Electronic               0.000              0.000              0.000
 Translational            0.889              2.981             36.671
 Rotational               0.592              1.987              7.905
 Vibrational              4.502              0.000              0.000
                       Q            Log10(Q)             Ln(Q)
 Total Bot       0.834955D+05          4.921663         11.332547
 Total V=0       0.166628D+09          8.221749         18.931276
 Vib (Bot)       0.501088D-03         -3.300086         -7.598728
 Vib (V=0)       0.100000D+01          0.000000          0.000000
 Electronic      0.100000D+01          0.000000          0.000000
 Translational   0.848175D+07          6.928485         15.953427
 Rotational      0.196455D+02          1.293263          2.977848
 ***** Axes restored to original set *****
 -------------------------------------------------------------------
 Center     Atomic                   Forces (Hartrees/Bohr)
 Number     Number              X              Y              Z
 -------------------------------------------------------------------
      1       17           0.000000000    0.000000000   -0.000009826
      2        1           0.000000000    0.000000000    0.000009826
 -------------------------------------------------------------------
 Cartesian Forces:  Max     0.000009826 RMS     0.000005673
 Force constants in Cartesian coordinates: 
                1             2             3             4             5 
      1 -0.407351D-05
      2  0.000000D+00 -0.407351D-05
      3  0.000000D+00  0.000000D+00  0.367673D+00
      4  0.407352D-05  0.000000D+00  0.000000D+00 -0.407352D-05
      5  0.000000D+00  0.407352D-05  0.000000D+00  0.000000D+00 -0.407352D-05
      6  0.000000D+00  0.000000D+00 -0.367673D+00  0.000000D+00  0.000000D+00
                6 
      6  0.367673D+00
 FormGI is forming the generalized inverse of G from B-inverse, IUseBI=4.
 Force constants in internal coordinates: 
                1 
      1  0.367673D+00
 Leave Link  716 at Wed Sep 03 18:00:41 2025, MaxMem=   536870912 cpu:               0.0 elap:               0.0
 (Enter C:\G16W\l103.exe)

 GradGradGradGradGradGradGradGradGradGradGradGradGradGradGradGradGradGrad
 Berny optimization.
 Red2BG is reusing G-inverse.
 Internal  Forces:  Max     0.000009826 RMS     0.000009826
 Search for a local minimum.
 Step number   1 out of a maximum of    2
 All quantities printed in internal units (Hartrees-Bohrs-Radians)
 Second derivative matrix not updated -- analytic derivatives used.
 The second derivative matrix:
                          R1
           R1           0.36767
 ITU=  0
     Eigenvalues ---    0.36767
 Angle between quadratic step and forces=   0.00 degrees.
 Linear search not attempted -- first point.
 Iteration  1 RMS(Cart)=  0.00001890 RMS(Int)=  0.00000000
 Iteration  2 RMS(Cart)=  0.00000000 RMS(Int)=  0.00000000
 ITry= 1 IFail=0 DXMaxC= 1.34D-05 DCOld= 1.00D+10 DXMaxT= 3.00D-01 DXLimC= 3.00D+00 Rises=F
 ClnCor:  largest displacement from symmetrization is 0.00D+00 for atom     0.
 Variable       Old X    -DE/DX   Delta X   Delta X   Delta X     New X
                                 (Linear)    (Quad)   (Total)
    R1        2.41371   0.00001   0.00000   0.00003   0.00003   2.41374
         Item               Value     Threshold  Converged?
 Maximum Force            0.000010     0.000015     YES
 RMS     Force            0.000010     0.000010     YES
 Maximum Displacement     0.000013     0.000060     YES
 RMS     Displacement     0.000019     0.000040     YES
 Predicted change in Energy=-1.312893D-10
 Optimization completed.
    -- Stationary point found.
                           ----------------------------
                           !   Optimized Parameters   !
                           ! (Angstroms and Degrees)  !
 --------------------------                            --------------------------
 ! Name  Definition              Value          Derivative Info.                !
 --------------------------------------------------------------------------------
 ! R1    R(1,2)                  1.2773         -DE/DX =    0.0                 !
 --------------------------------------------------------------------------------
 GradGradGradGradGradGradGradGradGradGradGradGradGradGradGradGradGradGrad

 Leave Link  103 at Wed Sep 03 18:00:41 2025, MaxMem=   536870912 cpu:               0.0 elap:               0.0
 (Enter C:\G16W\l9999.exe)

 ----------------------------------------------------------------------

 Electric dipole moment (input orientation):
 (Debye = 10**-18 statcoulomb cm , SI units = C m)
                  (au)            (Debye)         (10**-30 SI)
   Tot        0.557743D+00      0.141764D+01      0.472874D+01
   x          0.000000D+00      0.000000D+00      0.000000D+00
   y          0.000000D+00      0.000000D+00      0.000000D+00
   z          0.557743D+00      0.141764D+01      0.472874D+01

 Dipole polarizability, Alpha (input orientation).
 (esu units = cm**3 , SI units = C**2 m**2 J**-1)
 Alpha(0;0):
               (au)            (10**-24 esu)      (10**-40 SI)
   iso        0.850336D+01      0.126007D+01      0.140202D+01
   aniso      0.656107D+01      0.972250D+00      0.108177D+01
   xx         0.631634D+01      0.935985D+00      0.104142D+01
   yx         0.000000D+00      0.000000D+00      0.000000D+00
   yy         0.631634D+01      0.935985D+00      0.104142D+01
   zx         0.000000D+00      0.000000D+00      0.000000D+00
   zy         0.000000D+00      0.000000D+00      0.000000D+00
   zz         0.128774D+02      0.190824D+01      0.212320D+01

 First dipole hyperpolarizability, Beta (input orientation).
 ||, _|_  parallel and perpendicular components, (z) with respect to z axis,
 vector components x,y,z.  Values do not include the 1/n! factor of 1/2.
 (esu units = statvolt**-1 cm**4 , SI units = C**3 m**3 J**-2)
 Beta(0;0,0):
               (au)            (10**-30 esu)      (10**-50 SI)
   || (z)     0.275740D+02      0.238218D+00      0.884121D-01
   _|_(z)     0.919132D+01      0.794059D-01      0.294707D-01
   x          0.000000D+00      0.000000D+00      0.000000D+00
   y          0.000000D+00      0.000000D+00      0.000000D+00
   z          0.137870D+03      0.119109D+01      0.442060D+00
   ||         0.275740D+02      0.238218D+00      0.884121D-01
   xxx        0.000000D+00      0.000000D+00      0.000000D+00
   xxy        0.000000D+00      0.000000D+00      0.000000D+00
   yxy        0.000000D+00      0.000000D+00      0.000000D+00
   yyy        0.000000D+00      0.000000D+00      0.000000D+00
   xxz        0.144254D+01      0.124624D-01      0.462529D-02
   yxz        0.000000D+00      0.000000D+00      0.000000D+00
   yyz        0.144254D+01      0.124624D-01      0.462529D-02
   zxz        0.000000D+00      0.000000D+00      0.000000D+00
   zyz        0.000000D+00      0.000000D+00      0.000000D+00
   zzz        0.430715D+02      0.372104D+00      0.138103D+00

 ----------------------------------------------------------------------

 Dipole orientation:
    17          0.00000000          0.00000000         -0.00215515
     1          0.00000000          0.00000000          2.41155596

 Electric dipole moment (dipole orientation):
 (Debye = 10**-18 statcoulomb cm , SI units = C m)
                  (au)            (Debye)         (10**-30 SI)
   Tot        0.557743D+00      0.141764D+01      0.472874D+01
   x          0.000000D+00      0.000000D+00      0.000000D+00
   y          0.000000D+00      0.000000D+00      0.000000D+00
   z          0.557743D+00      0.141764D+01      0.472874D+01

 Dipole polarizability, Alpha (dipole orientation).
 (esu units = cm**3 , SI units = C**2 m**2 J**-1)
 Alpha(0;0):
               (au)            (10**-24 esu)      (10**-40 SI)
   iso        0.850336D+01      0.126007D+01      0.140202D+01
   aniso      0.656107D+01      0.972250D+00      0.108177D+01
   xx         0.631634D+01      0.935985D+00      0.104142D+01
   yx         0.000000D+00      0.000000D+00      0.000000D+00
   yy         0.631634D+01      0.935985D+00      0.104142D+01
   zx         0.000000D+00      0.000000D+00      0.000000D+00
   zy         0.000000D+00      0.000000D+00      0.000000D+00
   zz         0.128774D+02      0.190824D+01      0.212320D+01

 First dipole hyperpolarizability, Beta (dipole orientation).
 ||, _|_  parallel and perpendicular components, (z) with respect to z axis,
 vector components x,y,z.  Values do not include the 1/n! factor of 1/2.
 (esu units = statvolt**-1 cm**4 , SI units = C**3 m**3 J**-2)
 Beta(0;0,0):
               (au)            (10**-30 esu)      (10**-50 SI)
   || (z)     0.275740D+02      0.238218D+00      0.884121D-01
   _|_(z)     0.919132D+01      0.794059D-01      0.294707D-01
   x          0.000000D+00      0.000000D+00      0.000000D+00
   y          0.000000D+00      0.000000D+00      0.000000D+00
   z          0.137870D+03      0.119109D+01      0.442060D+00
   ||         0.275740D+02      0.238218D+00      0.884121D-01
   xxx        0.000000D+00      0.000000D+00      0.000000D+00
   xxy        0.000000D+00      0.000000D+00      0.000000D+00
   yxy        0.000000D+00      0.000000D+00      0.000000D+00
   yyy        0.000000D+00      0.000000D+00      0.000000D+00
   xxz        0.144254D+01      0.124624D-01      0.462529D-02
   yxz        0.000000D+00      0.000000D+00      0.000000D+00
   yyz        0.144254D+01      0.124624D-01      0.462529D-02
   zxz        0.000000D+00      0.000000D+00      0.000000D+00
   zyz        0.000000D+00      0.000000D+00      0.000000D+00
   zzz        0.430715D+02      0.372104D+00      0.138103D+00

 ----------------------------------------------------------------------
 1|1|UNPC-DESKTOP-SI45VP7|Freq|RHF|CC-pVDZ|Cl1H1|DOG OF ROMAN|03-Sep-20
 25|0||#P Geom=AllCheck Guess=TCheck SCRF=Check GenChk RHF/CC-pVDZ Freq
 ||Calculation of the ground state energy with STO-3G basis set||0,1|Cl
 ,0.,0.,-0.0011404582|H,0.,0.,1.2761404582||Version=EM64W-G16RevB.01|St
 ate=1-SG|HF=-460.0894498|RMSD=3.277e-010|RMSF=5.673e-006|ZeroPoint=0.0
 071746|Thermal=0.0095351|Dipole=0.,0.,0.5577432|DipoleDeriv=-0.2310729
 ,0.,0.,0.,-0.2310729,0.,0.,0.,-0.2243969,0.2310729,0.,0.,0.,0.2310729,
 0.,0.,0.,0.2243969|Polar=6.3163416,0.,6.3163416,0.,0.,12.8774116|Polar
 Deriv=0.,0.,0.,-2.7182501,0.,0.,0.,0.,0.,0.,-2.7182501,0.,0.3021517,0.
 ,0.3021517,0.,0.,-10.8505324,0.,0.,0.,2.7182501,0.,0.,0.,0.,0.,0.,2.71
 82501,0.,-0.3021517,0.,-0.3021517,0.,0.,10.8505324|HyperPolar=0.,0.,0.
 ,0.,1.4425366,0.,1.4425366,0.,0.,43.0715319|Quadrupole=-0.8991885,-0.8
 991885,1.798377,0.,0.,0.|PG=C*V [C*(H1Cl1)]|NImag=0||-0.00000407,0.,-0
 .00000407,0.,0.,0.36767276,0.00000407,0.,0.,-0.00000407,0.,0.00000407,
 0.,0.,-0.00000407,0.,0.,-0.36767276,0.,0.,0.36767276||0.,0.,0.00000983
 ,0.,0.,-0.00000983|||@


 A MATHEMATICIAN IS A MACHINE FOR TURNING COFFEE INTO THEOREMS.
     -- QUOTED BY PAUL ERDOS
 Job cpu time:       0 days  0 hours  0 minutes  2.0 seconds.
 Elapsed time:       0 days  0 hours  0 minutes  0.8 seconds.
 File lengths (MBytes):  RWF=      6 Int=      0 D2E=      0 Chk=      2 Scr=      1
 Normal termination of Gaussian 16 at Wed Sep 03 18:00:41 2025.
