 Entering Link 1 = C:\G16W\l1.exe PID=     40116.
  
 Copyright (c) 1988-2017, Gaussian, Inc.  All Rights Reserved.
  
 This is part of the Gaussian(R) 16 program.  It is based on
 the Gaussian(R) 09 system (copyright 2009, Gaussian, Inc.),
 the Gaussian(R) 03 system (copyright 2003, Gaussian, Inc.),
 the Gaussian(R) 98 system (copyright 1998, Gaussian, Inc.),
 the Gaussian(R) 94 system (copyright 1995, Gaussian, Inc.),
 the Gaussian 92(TM) system (copyright 1992, Gaussian, Inc.),
 the Gaussian 90(TM) system (copyright 1990, Gaussian, Inc.),
 the Gaussian 88(TM) system (copyright 1988, Gaussian, Inc.),
 the Gaussian 86(TM) system (copyright 1986, Carnegie Mellon
 University), and the Gaussian 82(TM) system (copyright 1983,
 Carnegie Mellon University). Gaussian is a federally registered
 trademark of Gaussian, Inc.
  
 This software contains proprietary and confidential information,
 including trade secrets, belonging to Gaussian, Inc.
  
 This software is provided under written license and may be
 used, copied, transmitted, or stored only in accord with that
 written license.
  
 The following legend is applicable only to US Government
 contracts under FAR:
  
                    RESTRICTED RIGHTS LEGEND
  
 Use, reproduction and disclosure by the US Government is
 subject to restrictions as set forth in subparagraphs (a)
 and (c) of the Commercial Computer Software - Restricted
 Rights clause in FAR 52.227-19.
  
 Gaussian, Inc.
 340 Quinnipiac St., Bldg. 40, Wallingford CT 06492
  
  
 ---------------------------------------------------------------
 Warning -- This program may not be used in any manner that
 competes with the business of Gaussian, Inc. or will provide
 assistance to any competitor of Gaussian, Inc.  The licensee
 of this program is prohibited from giving any competitor of
 Gaussian, Inc. access to this program.  By using this program,
 the user acknowledges that Gaussian, Inc. is engaged in the
 business of creating and licensing software in the field of
 computational chemistry and represents and warrants to the
 licensee that it is not a competitor of Gaussian, Inc. and that
 it will not use this program in any manner prohibited above.
 ---------------------------------------------------------------
  

 Cite this work as:
 Gaussian 16, Revision B.01,
 M. J. Frisch, G. W. Trucks, H. B. Schlegel, G. E. Scuseria, 
 M. A. Robb, J. R. Cheeseman, G. Scalmani, V. Barone, 
 G. A. Petersson, H. Nakatsuji, X. Li, M. Caricato, A. V. Marenich, 
 J. Bloino, B. G. Janesko, R. Gomperts, B. Mennucci, H. P. Hratchian, 
 J. V. Ortiz, A. F. Izmaylov, J. L. Sonnenberg, D. Williams-Young, 
 F. Ding, F. Lipparini, F. Egidi, J. Goings, B. Peng, A. Petrone, 
 T. Henderson, D. Ranasinghe, V. G. Zakrzewski, J. Gao, N. Rega, 
 G. Zheng, W. Liang, M. Hada, M. Ehara, K. Toyota, R. Fukuda, 
 J. Hasegawa, M. Ishida, T. Nakajima, Y. Honda, O. Kitao, H. Nakai, 
 T. Vreven, K. Throssell, J. A. Montgomery, Jr., J. E. Peralta, 
 F. Ogliaro, M. J. Bearpark, J. J. Heyd, E. N. Brothers, K. N. Kudin, 
 V. N. Staroverov, T. A. Keith, R. Kobayashi, J. Normand, 
 K. Raghavachari, A. P. Rendell, J. C. Burant, S. S. Iyengar, 
 J. Tomasi, M. Cossi, J. M. Millam, M. Klene, C. Adamo, R. Cammi, 
 J. W. Ochterski, R. L. Martin, K. Morokuma, O. Farkas, 
 J. B. Foresman, and D. J. Fox, Gaussian, Inc., Wallingford CT, 2016.
 
 ******************************************
 Gaussian 16:  EM64W-G16RevB.01 16-Dec-2017
                03-Sep-2025 
 ******************************************
 %chk=HCl.chk
 %mem=4GB
 %nproc=1
 Will use up to    1 processors via shared memory.
 ------------------------------------------------------------
 #p RHf/6-311+g(d) opt=(tight,calcfc) freq scf=tight pop=full
 ------------------------------------------------------------
 1/7=10,10=4,18=20,19=15,38=1/1,3;
 2/9=110,12=2,17=6,18=5,40=1/2;
 3/5=4,6=6,7=11,11=1,25=1,30=1,71=2,116=1,140=1/1,2,3;
 4//1;
 5/5=2,32=2,38=5/2;
 8/6=4,10=90,11=11/1;
 11/6=1,8=1,9=11,15=111,16=1/1,2,10;
 10/6=1,13=1/2;
 6/7=3,28=1/1;
 7/10=1,18=20,25=1/1,2,3,16;
 1/7=10,10=4,18=20,19=15/3(2);
 2/9=110/2;
 99//99;
 2/9=110/2;
 3/5=4,6=6,7=11,11=1,25=1,30=1,71=1,116=1/1,2,3;
 4/5=5,16=3,69=1/1;
 5/5=2,32=2,38=5/2;
 7//1,2,3,16;
 1/7=10,18=20,19=15/3(-5);
 2/9=110/2;
 6/7=3,19=2,28=1/1;
 99/9=1/99;
 Leave Link    1 at Wed Sep 03 20:42:25 2025, MaxMem=   536870912 cpu:               0.0 elap:               0.0
 (Enter C:\G16W\l101.exe)
 ------------------------------------------------------------
 Calculation of the ground state energy with STO-3G basis set
 ------------------------------------------------------------
 Symbolic Z-matrix:
 Charge =  0 Multiplicity = 1
 Cl
 H                    1    B1
       Variables:
  B1                    1.275                    
 
 ITRead=  0  0
 MicOpt= -1 -1
 NAtoms=      2 NQM=        2 NQMF=       0 NMMI=      0 NMMIF=      0
                NMic=       0 NMicF=      0.
                    Isotopes and Nuclear Properties:
 (Nuclear quadrupole moments (NQMom) in fm**2, nuclear magnetic moments (NMagM)
  in nuclear magnetons)

  Atom         1           2
 IAtWgt=          35           1
 AtmWgt=  34.9688527   1.0078250
 NucSpn=           3           1
 AtZEff=   0.0000000   0.0000000
 NQMom=   -8.1650000   0.0000000
 NMagM=    0.8218740   2.7928460
 AtZNuc=  17.0000000   1.0000000
 Leave Link  101 at Wed Sep 03 20:42:25 2025, MaxMem=   536870912 cpu:               0.0 elap:               0.1
 (Enter C:\G16W\l103.exe)

 GradGradGradGradGradGradGradGradGradGradGradGradGradGradGradGradGradGrad
 Berny optimization.
 Initialization pass.
                           ----------------------------
                           !    Initial Parameters    !
                           ! (Angstroms and Degrees)  !
 --------------------------                            --------------------------
 ! Name  Definition              Value          Derivative Info.                !
 --------------------------------------------------------------------------------
 ! R1    R(1,2)                  1.275          calculate D2E/DX2 analytically  !
 --------------------------------------------------------------------------------
 Trust Radius=3.00D-01 FncErr=1.00D-07 GrdErr=1.00D-07 EigMax=2.50D+02 EigMin=1.00D-04
 Number of steps in this run=     20 maximum allowed number of steps=    100.
 GradGradGradGradGradGradGradGradGradGradGradGradGradGradGradGradGradGrad

 Leave Link  103 at Wed Sep 03 20:42:25 2025, MaxMem=   536870912 cpu:               0.0 elap:               0.0
 (Enter C:\G16W\l202.exe)
                          Input orientation:                          
 ---------------------------------------------------------------------
 Center     Atomic      Atomic             Coordinates (Angstroms)
 Number     Number       Type             X           Y           Z
 ---------------------------------------------------------------------
      1         17           0        0.000000    0.000000    0.000000
      2          1           0        0.000000    0.000000    1.275000
 ---------------------------------------------------------------------
 Stoichiometry    ClH
 Framework group  C*V[C*(HCl)]
 Deg. of freedom     1
 Full point group                 C*V     NOp   4
 Largest Abelian subgroup         C2V     NOp   4
 Largest concise Abelian subgroup C1      NOp   1
                         Standard orientation:                         
 ---------------------------------------------------------------------
 Center     Atomic      Atomic             Coordinates (Angstroms)
 Number     Number       Type             X           Y           Z
 ---------------------------------------------------------------------
      1         17           0        0.000000    0.000000    0.070833
      2          1           0        0.000000    0.000000   -1.204167
 ---------------------------------------------------------------------
 Rotational constants (GHZ):           0.0000000         317.3593948         317.3593948
 Leave Link  202 at Wed Sep 03 20:42:25 2025, MaxMem=   536870912 cpu:               0.0 elap:               0.0
 (Enter C:\G16W\l301.exe)
 Standard basis: 6-311+G(d) (5D, 7F)
 Ernie: Thresh=  0.10000D-02 Tol=  0.10000D-05 Strict=F.
 There are    19 symmetry adapted cartesian basis functions of A1  symmetry.
 There are     1 symmetry adapted cartesian basis functions of A2  symmetry.
 There are     7 symmetry adapted cartesian basis functions of B1  symmetry.
 There are     7 symmetry adapted cartesian basis functions of B2  symmetry.
 There are    18 symmetry adapted basis functions of A1  symmetry.
 There are     1 symmetry adapted basis functions of A2  symmetry.
 There are     7 symmetry adapted basis functions of B1  symmetry.
 There are     7 symmetry adapted basis functions of B2  symmetry.
    33 basis functions,    58 primitive gaussians,    34 cartesian basis functions
     9 alpha electrons        9 beta electrons
       nuclear repulsion energy         7.0556961456 Hartrees.
 IExCor=    0 DFT=F Ex=HF Corr=None ExCW=0 ScaHFX=  1.000000
 ScaDFX=  1.000000  1.000000  1.000000  1.000000 ScalE2=  1.000000  1.000000
 IRadAn=      5 IRanWt=     -1 IRanGd=            0 ICorTp=0 IEmpDi=  4
 NAtoms=    2 NActive=    2 NUniq=    2 SFac= 1.00D+00 NAtFMM=   60 NAOKFM=F Big=F
 Integral buffers will be    131072 words long.
 Raffenetti 1 integral format.
 Two-electron integral symmetry is turned on.
 Leave Link  301 at Wed Sep 03 20:42:25 2025, MaxMem=   536870912 cpu:               0.0 elap:               0.0
 (Enter C:\G16W\l302.exe)
 NPDir=0 NMtPBC=     1 NCelOv=     1 NCel=       1 NClECP=     1 NCelD=      1
         NCelK=      1 NCelE2=     1 NClLst=     1 CellRange=     0.0.
 One-electron integrals computed using PRISM.
 One-electron integral symmetry used in STVInt
 NBasis=    33 RedAO= T EigKep=  2.39D-02  NBF=    18     1     7     7
 NBsUse=    33 1.00D-06 EigRej= -1.00D+00 NBFU=    18     1     7     7
 Leave Link  302 at Wed Sep 03 20:42:25 2025, MaxMem=   536870912 cpu:               0.0 elap:               0.0
 (Enter C:\G16W\l303.exe)
 DipDrv:  MaxL=1.
 Leave Link  303 at Wed Sep 03 20:42:25 2025, MaxMem=   536870912 cpu:               0.0 elap:               0.0
 (Enter C:\G16W\l401.exe)
 ExpMin= 4.83D-02 ExpMax= 1.06D+05 ExpMxC= 3.62D+03 IAcc=3 IRadAn=         5 AccDes= 0.00D+00
 Harris functional with IExCor=  205 and IRadAn=       5 diagonalized for initial guess.
 HarFok:  IExCor=  205 AccDes= 0.00D+00 IRadAn=         5 IDoV= 1 UseB2=F ITyADJ=14
 ICtDFT=  3500011 ScaDFX=  1.000000  1.000000  1.000000  1.000000
 FoFCou: FMM=F IPFlag=           0 FMFlag=      100000 FMFlg1=           0
         NFxFlg=           0 DoJE=T BraDBF=F KetDBF=T FulRan=T
         wScrn=  0.000000 ICntrl=       500 IOpCl=  0 I1Cent=   200000004 NGrid=           0
         NMat0=    1 NMatS0=      1 NMatT0=    0 NMatD0=    1 NMtDS0=    0 NMtDT0=    0
 Petite list used in FoFCou.
 Harris En= -459.655077347728    
 JPrj=0 DoOrth=F DoCkMO=F.
 Initial guess orbital symmetries:
       Occupied  (SG) (SG) (SG) (PI) (PI) (SG) (SG) (PI) (PI)
       Virtual   (SG) (SG) (SG) (PI) (PI) (SG) (SG) (PI) (PI) (SG)
                 (PI) (PI) (DLTA) (DLTA) (SG) (SG) (PI) (PI) (SG)
                 (SG) (PI) (PI) (SG) (SG)
 The electronic state of the initial guess is 1-SG.
 Leave Link  401 at Wed Sep 03 20:42:25 2025, MaxMem=   536870912 cpu:               0.0 elap:               0.1
 (Enter C:\G16W\l502.exe)
 Keep R1 ints in memory in symmetry-blocked form, NReq=993545.
 FoFCou: FMM=F IPFlag=           0 FMFlag=           0 FMFlg1=           0
         NFxFlg=           0 DoJE=F BraDBF=F KetDBF=F FulRan=T
         wScrn=  0.000000 ICntrl=       600 IOpCl=  0 I1Cent=           0 NGrid=           0
         NMat0=    1 NMatS0=    561 NMatT0=    0 NMatD0=    1 NMtDS0=    0 NMtDT0=    0
 Petite list used in FoFCou.
 Closed shell SCF:
 Using DIIS extrapolation, IDIIS=  1040.
 NGot=   536870912 LenX=   536819183 LenY=   536817586
 Requested convergence on RMS density matrix=1.00D-08 within 128 cycles.
 Requested convergence on MAX density matrix=1.00D-06.
 Requested convergence on             energy=1.00D-06.
 No special actions if energy rises.

 Cycle   1  Pass 1  IDiag  1:
 E= -460.060081052159    
 DIIS: error= 1.70D-01 at cycle   1 NSaved=   1.
 NSaved= 1 IEnMin= 1 EnMin= -460.060081052159     IErMin= 1 ErrMin= 1.70D-01
 ErrMax= 1.70D-01  0.00D+00 EMaxC= 1.00D-01 BMatC= 5.01D-01 BMatP= 5.01D-01
 IDIUse=3 WtCom= 0.00D+00 WtEn= 1.00D+00
 Coeff-Com:  0.100D+01
 Coeff-En:   0.100D+01
 Coeff:      0.100D+01
 Gap=     0.579 Goal=   None    Shift=    0.000
 GapD=    0.579 DampG=2.000 DampE=0.250 DampFc=0.5000 IDamp=-1.
 Damping current iteration by 5.00D-01
 RMSDP=2.99D-03 MaxDP=2.86D-02              OVMax= 3.26D-02

 Cycle   2  Pass 1  IDiag  1:
 E= -460.073266095199     Delta-E=       -0.013185043040 Rises=F Damp=T
 DIIS: error= 8.59D-02 at cycle   2 NSaved=   2.
 NSaved= 2 IEnMin= 2 EnMin= -460.073266095199     IErMin= 2 ErrMin= 8.59D-02
 ErrMax= 8.59D-02  0.00D+00 EMaxC= 1.00D-01 BMatC= 1.29D-01 BMatP= 5.01D-01
 IDIUse=3 WtCom= 1.41D-01 WtEn= 8.59D-01
 Coeff-Com: -0.103D+01 0.203D+01
 Coeff-En:   0.000D+00 0.100D+01
 Coeff:     -0.144D+00 0.114D+01
 Gap=     0.564 Goal=   None    Shift=    0.000
 RMSDP=1.63D-03 MaxDP=1.56D-02 DE=-1.32D-02 OVMax= 4.34D-03

 Cycle   3  Pass 1  IDiag  1:
 E= -460.087048591433     Delta-E=       -0.013782496234 Rises=F Damp=F
 DIIS: error= 1.54D-03 at cycle   3 NSaved=   3.
 NSaved= 3 IEnMin= 3 EnMin= -460.087048591433     IErMin= 3 ErrMin= 1.54D-03
 ErrMax= 1.54D-03  0.00D+00 EMaxC= 1.00D-01 BMatC= 1.27D-04 BMatP= 1.29D-01
 IDIUse=3 WtCom= 9.85D-01 WtEn= 1.54D-02
 Coeff-Com:  0.784D+00-0.157D+01 0.179D+01
 Coeff-En:   0.000D+00 0.000D+00 0.100D+01
 Coeff:      0.772D+00-0.155D+01 0.177D+01
 Gap=     0.568 Goal=   None    Shift=    0.000
 RMSDP=3.42D-04 MaxDP=3.96D-03 DE=-1.38D-02 OVMax= 3.98D-03

 Cycle   4  Pass 1  IDiag  1:
 E= -460.087159034864     Delta-E=       -0.000110443431 Rises=F Damp=F
 DIIS: error= 2.23D-04 at cycle   4 NSaved=   4.
 NSaved= 4 IEnMin= 4 EnMin= -460.087159034864     IErMin= 4 ErrMin= 2.23D-04
 ErrMax= 2.23D-04  0.00D+00 EMaxC= 1.00D-01 BMatC= 2.26D-06 BMatP= 1.27D-04
 IDIUse=3 WtCom= 9.98D-01 WtEn= 2.23D-03
 Coeff-Com:  0.115D+00-0.231D+00 0.209D+00 0.906D+00
 Coeff-En:   0.000D+00 0.000D+00 0.000D+00 0.100D+01
 Coeff:      0.115D+00-0.230D+00 0.209D+00 0.907D+00
 Gap=     0.569 Goal=   None    Shift=    0.000
 RMSDP=4.05D-05 MaxDP=2.67D-04 DE=-1.10D-04 OVMax= 6.26D-04

 Cycle   5  Pass 1  IDiag  1:
 E= -460.087161985130     Delta-E=       -0.000002950266 Rises=F Damp=F
 DIIS: error= 5.78D-05 at cycle   5 NSaved=   5.
 NSaved= 5 IEnMin= 5 EnMin= -460.087161985130     IErMin= 5 ErrMin= 5.78D-05
 ErrMax= 5.78D-05  0.00D+00 EMaxC= 1.00D-01 BMatC= 1.48D-07 BMatP= 2.26D-06
 IDIUse=1 WtCom= 1.00D+00 WtEn= 0.00D+00
 Coeff-Com: -0.563D-01 0.113D+00-0.133D+00-0.118D+00 0.119D+01
 Coeff:     -0.563D-01 0.113D+00-0.133D+00-0.118D+00 0.119D+01
 Gap=     0.569 Goal=   None    Shift=    0.000
 RMSDP=2.10D-05 MaxDP=1.75D-04 DE=-2.95D-06 OVMax= 3.57D-04

 Cycle   6  Pass 1  IDiag  1:
 E= -460.087162316196     Delta-E=       -0.000000331066 Rises=F Damp=F
 DIIS: error= 5.86D-06 at cycle   6 NSaved=   6.
 NSaved= 6 IEnMin= 6 EnMin= -460.087162316196     IErMin= 6 ErrMin= 5.86D-06
 ErrMax= 5.86D-06  0.00D+00 EMaxC= 1.00D-01 BMatC= 2.40D-09 BMatP= 1.48D-07
 IDIUse=1 WtCom= 1.00D+00 WtEn= 0.00D+00
 Coeff-Com:  0.729D-02-0.146D-01 0.183D-01-0.571D-02-0.176D+00 0.117D+01
 Coeff:      0.729D-02-0.146D-01 0.183D-01-0.571D-02-0.176D+00 0.117D+01
 Gap=     0.569 Goal=   None    Shift=    0.000
 RMSDP=2.84D-06 MaxDP=2.59D-05 DE=-3.31D-07 OVMax= 4.80D-05

 Cycle   7  Pass 1  IDiag  1:
 E= -460.087162321674     Delta-E=       -0.000000005478 Rises=F Damp=F
 DIIS: error= 1.63D-06 at cycle   7 NSaved=   7.
 NSaved= 7 IEnMin= 7 EnMin= -460.087162321674     IErMin= 7 ErrMin= 1.63D-06
 ErrMax= 1.63D-06  0.00D+00 EMaxC= 1.00D-01 BMatC= 8.38D-11 BMatP= 2.40D-09
 IDIUse=1 WtCom= 1.00D+00 WtEn= 0.00D+00
 Coeff-Com:  0.151D-02-0.303D-02 0.330D-02 0.336D-02-0.225D-01-0.909D-01
 Coeff-Com:  0.111D+01
 Coeff:      0.151D-02-0.303D-02 0.330D-02 0.336D-02-0.225D-01-0.909D-01
 Coeff:      0.111D+01
 Gap=     0.569 Goal=   None    Shift=    0.000
 RMSDP=4.44D-07 MaxDP=3.62D-06 DE=-5.48D-09 OVMax= 7.66D-06

 Cycle   8  Pass 1  IDiag  1:
 E= -460.087162321829     Delta-E=       -0.000000000155 Rises=F Damp=F
 DIIS: error= 1.94D-07 at cycle   8 NSaved=   8.
 NSaved= 8 IEnMin= 8 EnMin= -460.087162321829     IErMin= 8 ErrMin= 1.94D-07
 ErrMax= 1.94D-07  0.00D+00 EMaxC= 1.00D-01 BMatC= 1.96D-12 BMatP= 8.38D-11
 IDIUse=1 WtCom= 1.00D+00 WtEn= 0.00D+00
 Coeff-Com: -0.315D-03 0.632D-03-0.761D-03-0.774D-04 0.819D-02-0.439D-01
 Coeff-Com: -0.318D-01 0.107D+01
 Coeff:     -0.315D-03 0.632D-03-0.761D-03-0.774D-04 0.819D-02-0.439D-01
 Coeff:     -0.318D-01 0.107D+01
 Gap=     0.569 Goal=   None    Shift=    0.000
 RMSDP=7.44D-08 MaxDP=8.06D-07 DE=-1.55D-10 OVMax= 1.12D-06

 Cycle   9  Pass 1  IDiag  1:
 E= -460.087162321833     Delta-E=       -0.000000000005 Rises=F Damp=F
 DIIS: error= 3.71D-08 at cycle   9 NSaved=   9.
 NSaved= 9 IEnMin= 9 EnMin= -460.087162321833     IErMin= 9 ErrMin= 3.71D-08
 ErrMax= 3.71D-08  0.00D+00 EMaxC= 1.00D-01 BMatC= 3.08D-14 BMatP= 1.96D-12
 IDIUse=1 WtCom= 1.00D+00 WtEn= 0.00D+00
 Coeff-Com:  0.514D-04-0.103D-03 0.129D-03 0.190D-04-0.178D-02 0.115D-01
 Coeff-Com: -0.690D-02-0.232D+00 0.123D+01
 Coeff:      0.514D-04-0.103D-03 0.129D-03 0.190D-04-0.178D-02 0.115D-01
 Coeff:     -0.690D-02-0.232D+00 0.123D+01
 Gap=     0.569 Goal=   None    Shift=    0.000
 RMSDP=8.41D-09 MaxDP=6.94D-08 DE=-4.55D-12 OVMax= 1.39D-07

 SCF Done:  E(RHF) =  -460.087162322     A.U. after    9 cycles
            NFock=  9  Conv=0.84D-08     -V/T= 1.9999
 KE= 4.601194399552D+02 PE=-1.109883577154D+03 EE= 1.826212787317D+02
 Leave Link  502 at Wed Sep 03 20:42:25 2025, MaxMem=   536870912 cpu:               0.0 elap:               0.1
 (Enter C:\G16W\l801.exe)
 Range of M.O.s used for correlation:     1    33
 NBasis=    33 NAE=     9 NBE=     9 NFC=     0 NFV=     0
 NROrb=     33 NOA=     9 NOB=     9 NVA=    24 NVB=    24
 Leave Link  801 at Wed Sep 03 20:42:25 2025, MaxMem=   536870912 cpu:               0.0 elap:               0.0
 (Enter C:\G16W\l1101.exe)
 Using compressed storage, NAtomX=     2.
 Will process      3 centers per pass.
 Leave Link 1101 at Wed Sep 03 20:42:25 2025, MaxMem=   536870912 cpu:               0.0 elap:               0.0
 (Enter C:\G16W\l1102.exe)
 Symmetrizing basis deriv contribution to polar:
 IMax=3 JMax=2 DiffMx= 0.00D+00
 Leave Link 1102 at Wed Sep 03 20:42:25 2025, MaxMem=   536870912 cpu:               0.0 elap:               0.0
 (Enter C:\G16W\l1110.exe)
 Forming Gx(P) for the SCF density, NAtomX=     2.
 Integral derivatives from FoFJK, PRISM(SPDF).
 Do as many integral derivatives as possible in FoFJK.
 G2DrvN: MDV=     536870628.
 G2DrvN: will do     3 centers at a time, making    1 passes.
 Calling FoFCou, ICntrl=  3107 FMM=F I1Cent=   0 AccDes= 0.00D+00.
 FoFJK:  IHMeth= 1 ICntrl=    3107 DoSepK=F KAlg= 0 I1Cent=           0 FoldK=F
 IRaf=         0 NMat=       1 IRICut=       1 DoRegI=T DoRafI=F ISym2E= 1 IDoP0=0 IntGTp=1.
 FoFCou: FMM=F IPFlag=           0 FMFlag=      100000 FMFlg1=           0
         NFxFlg=           0 DoJE=F BraDBF=F KetDBF=F FulRan=T
         wScrn=  0.000000 ICntrl=      3107 IOpCl=  0 I1Cent=           0 NGrid=           0
         NMat0=    1 NMatS0=      1 NMatT0=    0 NMatD0=    1 NMtDS0=    0 NMtDT0=    0
 Petite list used in FoFCou.
 End of G2Drv F.D. properties file   721 does not exist.
 End of G2Drv F.D. properties file   722 does not exist.
 End of G2Drv F.D. properties file   788 does not exist.
 Leave Link 1110 at Wed Sep 03 20:42:25 2025, MaxMem=   536870912 cpu:               0.0 elap:               0.1
 (Enter C:\G16W\l1002.exe)
 Minotr:  Closed shell wavefunction.
          IDoAtm=11
          Direct CPHF calculation.
          Differentiating once with respect to nuclear coordinates.
          Using symmetry in CPHF.
          Requested convergence is 1.0D-08 RMS, and 1.0D-07 maximum.
          Secondary convergence is 1.0D-12 RMS, and 1.0D-12 maximum.
          NewPWx=T KeepS1=F KeepF1=F KeepIn=T MapXYZ=F SortEE=F KeepMc=T.
 Keep R1 ints in memory in symmetry-blocked form, NReq=994022.
 FoFCou: FMM=F IPFlag=           0 FMFlag=           0 FMFlg1=           0
         NFxFlg=           0 DoJE=F BraDBF=F KetDBF=F FulRan=T
         wScrn=  0.000000 ICntrl=       600 IOpCl=  0 I1Cent=           0 NGrid=           0
         NMat0=    1 NMatS0=    561 NMatT0=    0 NMatD0=    1 NMtDS0=    0 NMtDT0=    0
 Petite list used in FoFCou.
          MDV=     536870912 using IRadAn=       1.
          Solving linear equations simultaneously, MaxMat=       0.
          There are     9 degrees of freedom in the 1st order CPHF.  IDoFFX=6 NUNeed=     0.
      3 vectors produced by pass  0 Test12= 2.40D-15 1.11D-08 XBig12= 1.49D-02 6.16D-02.
 AX will form     3 AO Fock derivatives at one time.
      3 vectors produced by pass  1 Test12= 2.40D-15 1.11D-08 XBig12= 8.11D-04 1.18D-02.
      3 vectors produced by pass  2 Test12= 2.40D-15 1.11D-08 XBig12= 2.16D-05 2.61D-03.
      3 vectors produced by pass  3 Test12= 2.40D-15 1.11D-08 XBig12= 5.79D-07 2.78D-04.
      3 vectors produced by pass  4 Test12= 2.40D-15 1.11D-08 XBig12= 2.39D-08 6.68D-05.
      3 vectors produced by pass  5 Test12= 2.40D-15 1.11D-08 XBig12= 2.44D-10 6.96D-06.
      3 vectors produced by pass  6 Test12= 2.40D-15 1.11D-08 XBig12= 2.05D-12 4.45D-07.
      1 vectors produced by pass  7 Test12= 2.40D-15 1.11D-08 XBig12= 3.50D-14 6.27D-08.
 InvSVY:  IOpt=1 It=  1 EMax= 2.22D-16
 Solved reduced A of dimension    22 with     3 vectors.
 End of Minotr F.D. properties file   721 does not exist.
 End of Minotr F.D. properties file   722 does not exist.
 End of Minotr F.D. properties file   788 does not exist.
 Leave Link 1002 at Wed Sep 03 20:42:25 2025, MaxMem=   536870912 cpu:               0.0 elap:               0.1
 (Enter C:\G16W\l601.exe)
 Copying SCF densities to generalized density rwf, IOpCl= 0 IROHF=0.

 **********************************************************************

            Population analysis using the SCF Density.

 **********************************************************************

 Orbital symmetries:
       Occupied  (SG) (SG) (SG) (PI) (PI) (SG) (SG) (PI) (PI)
       Virtual   (SG) (SG) (PI) (PI) (SG) (SG) (SG) (PI) (PI) (SG)
                 (PI) (PI) (DLTA) (DLTA) (SG) (SG) (PI) (PI) (SG)
                 (SG) (PI) (PI) (SG) (SG)
 The electronic state is 1-SG.
 Alpha  occ. eigenvalues -- -104.84994 -10.57661  -8.04547  -8.04160  -8.04160
 Alpha  occ. eigenvalues --   -1.12121  -0.62989  -0.47723  -0.47723
 Alpha virt. eigenvalues --    0.09164   0.12202   0.12538   0.12538   0.16753
 Alpha virt. eigenvalues --    0.47140   0.58784   0.59246   0.59246   1.01512
 Alpha virt. eigenvalues --    1.11177   1.11177   1.13824   1.13824   1.37017
 Alpha virt. eigenvalues --    2.45467   2.59066   2.59066   2.80988  10.18193
 Alpha virt. eigenvalues --   26.60846  26.60846  26.75529 219.00778
     Molecular Orbital Coefficients:
                           1         2         3         4         5
                           O         O         O         O         O
     Eigenvalues --  -104.84994 -10.57661  -8.04547  -8.04160  -8.04160
   1 1   Cl 1S          0.41173  -0.12194  -0.00070   0.00000   0.00000
   2        2S          0.65466  -0.33149  -0.00195   0.00000   0.00000
   3        3S          0.01208   0.51180   0.00366   0.00000   0.00000
   4        4S         -0.00090   0.60577   0.00291   0.00000   0.00000
   5        5S          0.00020   0.04254  -0.00085   0.00000   0.00000
   6        6S         -0.00013  -0.01097   0.00004   0.00000   0.00000
   7        7S          0.00001   0.00184  -0.00034   0.00000   0.00000
   8        7PX         0.00000   0.00000   0.00000  -0.00051   0.00000
   9        7PY         0.00000   0.00000   0.00000   0.00000  -0.00051
  10        7PZ        -0.00001   0.00039  -0.00056   0.00000   0.00000
  11        8PX         0.00000   0.00000   0.00000   0.80317   0.00000
  12        8PY         0.00000   0.00000   0.00000   0.00000   0.80317
  13        8PZ        -0.00011  -0.00378   0.80230   0.00000   0.00000
  14        9PX         0.00000   0.00000   0.00000  -0.27778   0.00000
  15        9PY         0.00000   0.00000   0.00000   0.00000  -0.27778
  16        9PZ        -0.00003   0.00135  -0.27734   0.00000   0.00000
  17       10PX         0.00000   0.00000   0.00000   0.04929   0.00000
  18       10PY         0.00000   0.00000   0.00000   0.00000   0.04929
  19       10PZ         0.00010  -0.00114   0.05191   0.00000   0.00000
  20       11PX         0.00000   0.00000   0.00000  -0.00242   0.00000
  21       11PY         0.00000   0.00000   0.00000   0.00000  -0.00242
  22       11PZ        -0.00006   0.00014  -0.00329   0.00000   0.00000
  23       12PX         0.00000   0.00000   0.00000   0.00123   0.00000
  24       12PY         0.00000   0.00000   0.00000   0.00000   0.00123
  25       12PZ         0.00004   0.00048   0.00180   0.00000   0.00000
  26       13D 0        0.00001   0.00030  -0.00058   0.00000   0.00000
  27       13D+1        0.00000   0.00000   0.00000  -0.00035   0.00000
  28       13D-1        0.00000   0.00000   0.00000   0.00000  -0.00035
  29       13D+2        0.00000   0.00000   0.00000   0.00000   0.00000
  30       13D-2        0.00000   0.00000   0.00000   0.00000   0.00000
  31 2   H  1S         -0.00001   0.00003  -0.00044   0.00000   0.00000
  32        2S          0.00000   0.00005  -0.00014   0.00000   0.00000
  33        3S          0.00003   0.00156   0.00057   0.00000   0.00000
                           6         7         8         9        10
                           O         O         O         O         V
     Eigenvalues --    -1.12121  -0.62989  -0.47723  -0.47723   0.09164
   1 1   Cl 1S          0.03469   0.01074   0.00000   0.00000  -0.00835
   2        2S          0.10028   0.03147   0.00000   0.00000  -0.02503
   3        3S         -0.19737  -0.06547   0.00000   0.00000   0.05686
   4        4S         -0.39881  -0.12030   0.00000   0.00000   0.07860
   5        5S          0.59925   0.18917   0.00000   0.00000  -0.04418
   6        6S          0.52981   0.26371   0.00000   0.00000  -0.76812
   7        7S         -0.00106   0.03540   0.00000   0.00000   1.28351
   8        7PX         0.00000   0.00000  -0.03472   0.00000   0.00000
   9        7PY         0.00000   0.00000   0.00000  -0.03472   0.00000
  10        7PZ        -0.00719  -0.01481   0.00000   0.00000  -0.90380
  11        8PX         0.00000   0.00000  -0.21919   0.00000   0.00000
  12        8PY         0.00000   0.00000   0.00000  -0.21919   0.00000
  13        8PZ         0.02889  -0.17994   0.00000   0.00000  -0.05480
  14        9PX         0.00000   0.00000   0.08481   0.00000   0.00000
  15        9PY         0.00000   0.00000   0.00000   0.08481   0.00000
  16        9PZ        -0.01060   0.06843   0.00000   0.00000   0.02058
  17       10PX         0.00000   0.00000   0.24298   0.00000   0.00000
  18       10PY         0.00000   0.00000   0.00000   0.24298   0.00000
  19       10PZ        -0.02291   0.19051   0.00000   0.00000   0.06413
  20       11PX         0.00000   0.00000   0.59260   0.00000   0.00000
  21       11PY         0.00000   0.00000   0.00000   0.59260   0.00000
  22       11PZ        -0.07753   0.45892   0.00000   0.00000   0.15220
  23       12PX         0.00000   0.00000   0.36927   0.00000   0.00000
  24       12PY         0.00000   0.00000   0.00000   0.36927   0.00000
  25       12PZ        -0.00805   0.14931   0.00000   0.00000   0.42356
  26       13D 0        0.03098  -0.07041   0.00000   0.00000  -0.01692
  27       13D+1        0.00000   0.00000  -0.01571   0.00000   0.00000
  28       13D-1        0.00000   0.00000   0.00000  -0.01571   0.00000
  29       13D+2        0.00000   0.00000   0.00000   0.00000   0.00000
  30       13D-2        0.00000   0.00000   0.00000   0.00000   0.00000
  31 2   H  1S          0.09181  -0.15900   0.00000   0.00000   0.00509
  32        2S          0.09441  -0.28225   0.00000   0.00000   0.16075
  33        3S         -0.01403  -0.08114   0.00000   0.00000  -0.21491
                          11        12        13        14        15
                           V         V         V         V         V
     Eigenvalues --     0.12202   0.12538   0.12538   0.16753   0.47140
   1 1   Cl 1S         -0.00646   0.00000   0.00000  -0.00467   0.00216
   2        2S         -0.01935   0.00000   0.00000  -0.01404   0.00654
   3        3S          0.04376   0.00000   0.00000   0.03205  -0.01531
   4        4S          0.06285   0.00000   0.00000   0.04307  -0.01988
   5        5S         -0.05771   0.00000   0.00000  -0.00815  -0.01569
   6        6S         -0.52987   0.00000   0.00000  -0.58768  -0.00488
   7        7S          0.75453   0.00000   0.00000  -1.73819  -1.34781
   8        7PX         0.00000   0.00000   1.54449   0.00000   0.00000
   9        7PY         0.00000   1.54449   0.00000   0.00000   0.00000
  10        7PZ         1.30167   0.00000   0.00000   0.59680   1.42686
  11        8PX         0.00000   0.00000   0.05842   0.00000   0.00000
  12        8PY         0.00000   0.05842   0.00000   0.00000   0.00000
  13        8PZ         0.03005   0.00000   0.00000  -0.09098   0.00035
  14        9PX         0.00000   0.00000  -0.01890   0.00000   0.00000
  15        9PY         0.00000  -0.01890   0.00000   0.00000   0.00000
  16        9PZ        -0.00851   0.00000   0.00000   0.03495   0.00221
  17       10PX         0.00000   0.00000  -0.09978   0.00000   0.00000
  18       10PY         0.00000  -0.09978   0.00000   0.00000   0.00000
  19       10PZ        -0.06024   0.00000   0.00000   0.10648  -0.01476
  20       11PX         0.00000   0.00000  -0.02718   0.00000   0.00000
  21       11PY         0.00000  -0.02718   0.00000   0.00000   0.00000
  22       11PZ         0.03170   0.00000   0.00000   0.24845   0.11018
  23       12PX         0.00000   0.00000  -0.83691   0.00000   0.00000
  24       12PY         0.00000  -0.83691   0.00000   0.00000   0.00000
  25       12PZ        -0.65268   0.00000   0.00000   1.12233  -0.96139
  26       13D 0        0.01685   0.00000   0.00000   0.09918  -0.17598
  27       13D+1        0.00000   0.00000   0.00368   0.00000   0.00000
  28       13D-1        0.00000   0.00368   0.00000   0.00000   0.00000
  29       13D+2        0.00000   0.00000   0.00000   0.00000   0.00000
  30       13D-2        0.00000   0.00000   0.00000   0.00000   0.00000
  31 2   H  1S          0.03230   0.00000   0.00000   0.12909  -0.09025
  32        2S          0.01075   0.00000   0.00000   0.18344  -1.54930
  33        3S          0.09304   0.00000   0.00000   2.69643   2.83817
                          16        17        18        19        20
                           V         V         V         V         V
     Eigenvalues --     0.58784   0.59246   0.59246   1.01512   1.11177
   1 1   Cl 1S          0.00103   0.00000   0.00000  -0.03475   0.00000
   2        2S          0.00255   0.00000   0.00000  -0.09512   0.00000
   3        3S         -0.00139   0.00000   0.00000   0.14054   0.00000
   4        4S         -0.02623   0.00000   0.00000   0.69116   0.00000
   5        5S          0.07212   0.00000   0.00000  -2.44025   0.00000
   6        6S         -0.27275   0.00000   0.00000   2.66650   0.00000
   7        7S         -0.99210   0.00000   0.00000  -0.55920   0.00000
   8        7PX         0.00000  -1.18155   0.00000   0.00000   0.00530
   9        7PY         0.00000   0.00000  -1.18155   0.00000   0.00000
  10        7PZ        -0.47022   0.00000   0.00000  -0.16838   0.00000
  11        8PX         0.00000   0.12976   0.00000   0.00000  -0.00650
  12        8PY         0.00000   0.00000   0.12976   0.00000   0.00000
  13        8PZ         0.14891   0.00000   0.00000  -0.01598   0.00000
  14        9PX         0.00000  -0.06619   0.00000   0.00000   0.00266
  15        9PY         0.00000   0.00000  -0.06619   0.00000   0.00000
  16        9PZ        -0.07302   0.00000   0.00000   0.00278   0.00000
  17       10PX         0.00000  -0.04533   0.00000   0.00000   0.01162
  18       10PY         0.00000   0.00000  -0.04533   0.00000   0.00000
  19       10PZ        -0.05930   0.00000   0.00000   0.04849   0.00000
  20       11PX         0.00000  -1.14554   0.00000   0.00000   0.01502
  21       11PY         0.00000   0.00000  -1.14554   0.00000   0.00000
  22       11PZ        -1.24037   0.00000   0.00000  -0.04366   0.00000
  23       12PX         0.00000   2.19902   0.00000   0.00000  -0.01181
  24       12PY         0.00000   0.00000   2.19902   0.00000   0.00000
  25       12PZ         2.25370   0.00000   0.00000  -0.11710   0.00000
  26       13D 0       -0.04037   0.00000   0.00000  -0.17304   0.00000
  27       13D+1        0.00000   0.01125   0.00000   0.00000   0.99980
  28       13D-1        0.00000   0.00000   0.01125   0.00000   0.00000
  29       13D+2        0.00000   0.00000   0.00000   0.00000   0.00000
  30       13D-2        0.00000   0.00000   0.00000   0.00000   0.00000
  31 2   H  1S         -0.08229   0.00000   0.00000   0.03220   0.00000
  32        2S         -0.72925   0.00000   0.00000  -0.01129   0.00000
  33        3S          2.11056   0.00000   0.00000  -0.54226   0.00000
                          21        22        23        24        25
                           V         V         V         V         V
     Eigenvalues --     1.11177   1.13824   1.13824   1.37017   2.45467
   1 1   Cl 1S          0.00000   0.00000   0.00000   0.00603  -0.00075
   2        2S          0.00000   0.00000   0.00000   0.01659  -0.00111
   3        3S          0.00000   0.00000   0.00000  -0.02511  -0.00718
   4        4S          0.00000   0.00000   0.00000  -0.12448   0.05024
   5        5S          0.00000   0.00000   0.00000   0.55738  -0.14511
   6        6S          0.00000   0.00000   0.00000  -0.83413   0.04461
   7        7S          0.00000   0.00000   0.00000   0.44482   0.68107
   8        7PX         0.00000   0.00000   0.00000   0.00000   0.00000
   9        7PY         0.00530   0.00000   0.00000   0.00000   0.00000
  10        7PZ         0.00000   0.00000   0.00000  -0.42049  -0.13649
  11        8PX         0.00000   0.00000   0.00000   0.00000   0.00000
  12        8PY        -0.00650   0.00000   0.00000   0.00000   0.00000
  13        8PZ         0.00000   0.00000   0.00000  -0.02554   0.37872
  14        9PX         0.00000   0.00000   0.00000   0.00000   0.00000
  15        9PY         0.00266   0.00000   0.00000   0.00000   0.00000
  16        9PZ         0.00000   0.00000   0.00000   0.00654  -0.09675
  17       10PX         0.00000   0.00000   0.00000   0.00000   0.00000
  18       10PY         0.01162   0.00000   0.00000   0.00000   0.00000
  19       10PZ         0.00000   0.00000   0.00000   0.05517  -1.43135
  20       11PX         0.00000   0.00000   0.00000   0.00000   0.00000
  21       11PY         0.01502   0.00000   0.00000   0.00000   0.00000
  22       11PZ         0.00000   0.00000   0.00000   0.09310   1.65529
  23       12PX         0.00000   0.00000   0.00000   0.00000   0.00000
  24       12PY        -0.01181   0.00000   0.00000   0.00000   0.00000
  25       12PZ         0.00000   0.00000   0.00000   0.57172  -0.73120
  26       13D 0        0.00000   0.00000   0.00000  -1.04238  -0.04155
  27       13D+1        0.00000   0.00000   0.00000   0.00000   0.00000
  28       13D-1        0.99980   0.00000   0.00000   0.00000   0.00000
  29       13D+2        0.00000   1.00000   0.00000   0.00000   0.00000
  30       13D-2        0.00000   0.00000   1.00000   0.00000   0.00000
  31 2   H  1S          0.00000   0.00000   0.00000  -0.05938  -1.04884
  32        2S          0.00000   0.00000   0.00000   1.31837   1.93348
  33        3S          0.00000   0.00000   0.00000  -0.83813  -1.73333
                          26        27        28        29        30
                           V         V         V         V         V
     Eigenvalues --     2.59066   2.59066   2.80988  10.18193  26.60846
   1 1   Cl 1S          0.00000   0.00000   0.00004   0.11592   0.00000
   2        2S          0.00000   0.00000   0.00131   0.48235   0.00000
   3        3S          0.00000   0.00000  -0.01351  -2.64545   0.00000
   4        4S          0.00000   0.00000   0.04254   3.08079   0.00000
   5        5S          0.00000   0.00000  -0.13501  -1.69117   0.00000
   6        6S          0.00000   0.00000   0.02141   0.95502   0.00000
   7        7S          0.00000   0.00000   0.31201  -0.15639   0.00000
   8        7PX         0.00000   0.49843   0.00000   0.00000   0.00000
   9        7PY         0.49843   0.00000   0.00000   0.00000  -0.25192
  10        7PZ         0.00000   0.00000  -0.62040  -0.02927   0.00000
  11        8PX         0.00000   0.51249   0.00000   0.00000   0.00000
  12        8PY         0.51249   0.00000   0.00000   0.00000  -2.21938
  13        8PZ         0.00000   0.00000  -0.35316  -0.00204   0.00000
  14        9PX         0.00000  -0.12739   0.00000   0.00000   0.00000
  15        9PY        -0.12739   0.00000   0.00000   0.00000  -1.76401
  16        9PZ         0.00000   0.00000   0.08502  -0.00324   0.00000
  17       10PX         0.00000  -1.97532   0.00000   0.00000   0.00000
  18       10PY        -1.97532   0.00000   0.00000   0.00000   2.40317
  19       10PZ         0.00000   0.00000   1.42135  -0.00207   0.00000
  20       11PX         0.00000   2.05291   0.00000   0.00000   0.00000
  21       11PY         2.05291   0.00000   0.00000   0.00000  -1.23217
  22       11PZ         0.00000   0.00000  -1.39907   0.00902   0.00000
  23       12PX         0.00000  -1.14140   0.00000   0.00000   0.00000
  24       12PY        -1.14140   0.00000   0.00000   0.00000   0.56954
  25       12PZ         0.00000   0.00000   0.94745  -0.07613   0.00000
  26       13D 0        0.00000   0.00000   0.08142   0.01080   0.00000
  27       13D+1        0.00000   0.00360   0.00000   0.00000   0.00000
  28       13D-1        0.00360   0.00000   0.00000   0.00000   0.00008
  29       13D+2        0.00000   0.00000   0.00000   0.00000   0.00000
  30       13D-2        0.00000   0.00000   0.00000   0.00000   0.00000
  31 2   H  1S          0.00000   0.00000  -1.25738   0.00426   0.00000
  32        2S          0.00000   0.00000   1.57427  -0.00956   0.00000
  33        3S          0.00000   0.00000  -0.96890  -0.16010   0.00000
                          31        32        33
                           V         V         V
     Eigenvalues --    26.60846  26.75529 219.00778
   1 1   Cl 1S          0.00000  -0.00035  -1.54193
   2        2S          0.00000  -0.00087   1.91407
   3        3S          0.00000   0.00599  -1.43398
   4        4S          0.00000  -0.00766   0.95702
   5        5S          0.00000  -0.00465  -0.38406
   6        6S          0.00000   0.00106   0.21264
   7        7S          0.00000  -0.12119  -0.03471
   8        7PX        -0.25192   0.00000   0.00000
   9        7PY         0.00000   0.00000   0.00000
  10        7PZ         0.00000  -0.19129  -0.00678
  11        8PX        -2.21938   0.00000   0.00000
  12        8PY         0.00000   0.00000   0.00000
  13        8PZ         0.00000  -2.23352   0.00079
  14        9PX        -1.76401   0.00000   0.00000
  15        9PY         0.00000   0.00000   0.00000
  16        9PZ         0.00000  -1.76976   0.00048
  17       10PX         2.40317   0.00000   0.00000
  18       10PY         0.00000   0.00000   0.00000
  19       10PZ         0.00000   2.44788  -0.00167
  20       11PX        -1.23217   0.00000   0.00000
  21       11PY         0.00000   0.00000   0.00000
  22       11PZ         0.00000  -1.30300   0.00300
  23       12PX         0.56954   0.00000   0.00000
  24       12PY         0.00000   0.00000   0.00000
  25       12PZ         0.00000   0.61267  -0.01794
  26       13D 0        0.00000   0.02433   0.00196
  27       13D+1        0.00008   0.00000   0.00000
  28       13D-1        0.00000   0.00000   0.00000
  29       13D+2        0.00000   0.00000   0.00000
  30       13D-2        0.00000   0.00000   0.00000
  31 2   H  1S          0.00000  -0.06445  -0.00053
  32        2S          0.00000  -0.08505  -0.00039
  33        3S          0.00000   0.22925  -0.03799
     Density Matrix:
                           1         2         3         4         5
   1 1   Cl 1S          0.37142
   2        2S          0.62757   1.09903
   3        3S         -0.12998  -0.36721   0.61067
   4        4S         -0.17873  -0.49035   0.79324   1.08097
   5        5S          0.03543   0.10415  -0.21777  -0.47195   0.79340
   6        6S          0.04499   0.12996  -0.25490  -0.49932   0.73382
   7        7S          0.00025   0.00081  -0.00234  -0.00545   0.01228
   8        7PX         0.00000   0.00000   0.00000   0.00000   0.00000
   9        7PY         0.00000   0.00000   0.00000   0.00000   0.00000
  10        7PZ        -0.00092  -0.00264   0.00517   0.00977  -0.01418
  11        8PX         0.00000   0.00000   0.00000   0.00000   0.00000
  12        8PY         0.00000   0.00000   0.00000   0.00000   0.00000
  13        8PZ        -0.00215  -0.00629   0.01415   0.02033  -0.03514
  14        9PX         0.00000   0.00000   0.00000   0.00000   0.00000
  15        9PY         0.00000   0.00000   0.00000   0.00000   0.00000
  16        9PZ         0.00077   0.00233  -0.00542  -0.00798   0.01377
  17       10PX         0.00000   0.00000   0.00000   0.00000   0.00000
  18       10PY         0.00000   0.00000   0.00000   0.00000   0.00000
  19       10PZ         0.00279   0.00808  -0.01669  -0.02864   0.04443
  20       11PX         0.00000   0.00000   0.00000   0.00000   0.00000
  21       11PY         0.00000   0.00000   0.00000   0.00000   0.00000
  22       11PZ         0.00440   0.01317  -0.02937  -0.04843   0.08074
  23       12PX         0.00000   0.00000   0.00000   0.00000   0.00000
  24       12PY         0.00000   0.00000   0.00000   0.00000   0.00000
  25       12PZ         0.00256   0.00751  -0.01586  -0.02890   0.04688
  26       13D 0        0.00057   0.00159  -0.00270  -0.00740   0.01051
  27       13D+1        0.00000   0.00000   0.00000   0.00000   0.00000
  28       13D-1        0.00000   0.00000   0.00000   0.00000   0.00000
  29       13D+2        0.00000   0.00000   0.00000   0.00000   0.00000
  30       13D-2        0.00000   0.00000   0.00000   0.00000   0.00000
  31 2   H  1S          0.00294   0.00838  -0.01539  -0.03493   0.04988
  32        2S          0.00047   0.00113  -0.00026  -0.00734   0.00637
  33        3S         -0.00307  -0.00891   0.01777   0.03261  -0.04739
                           6         7         8         9        10
   6        6S          0.70072
   7        7S          0.01750   0.00251
   8        7PX         0.00000   0.00000   0.00241
   9        7PY         0.00000   0.00000   0.00000   0.00241
  10        7PZ        -0.01544  -0.00103   0.00000   0.00000   0.00054
  11        8PX         0.00000   0.00000   0.01440   0.00000   0.00000
  12        8PY         0.00000   0.00000   0.00000   0.01440   0.00000
  13        8PZ        -0.06415  -0.01336   0.00000   0.00000   0.00401
  14        9PX         0.00000   0.00000  -0.00560   0.00000   0.00000
  15        9PY         0.00000   0.00000   0.00000  -0.00560   0.00000
  16        9PZ         0.02481   0.00506   0.00000   0.00000  -0.00156
  17       10PX         0.00000   0.00000  -0.01692   0.00000   0.00000
  18       10PY         0.00000   0.00000   0.00000  -0.01692   0.00000
  19       10PZ         0.07623   0.01350   0.00000   0.00000  -0.00537
  20       11PX         0.00000   0.00000  -0.04114   0.00000   0.00000
  21       11PY         0.00000   0.00000   0.00000  -0.04114   0.00000
  22       11PZ         0.15990   0.03266   0.00000   0.00000  -0.01248
  23       12PX         0.00000   0.00000  -0.02564   0.00000   0.00000
  24       12PY         0.00000   0.00000   0.00000  -0.02564   0.00000
  25       12PZ         0.07020   0.01059   0.00000   0.00000  -0.00431
  26       13D 0       -0.00432  -0.00505   0.00000   0.00000   0.00164
  27       13D+1        0.00000   0.00000   0.00109   0.00000   0.00000
  28       13D-1        0.00000   0.00000   0.00000   0.00109   0.00000
  29       13D+2        0.00000   0.00000   0.00000   0.00000   0.00000
  30       13D-2        0.00000   0.00000   0.00000   0.00000   0.00000
  31 2   H  1S          0.01342  -0.01145   0.00000   0.00000   0.00339
  32        2S         -0.04882  -0.02018   0.00000   0.00000   0.00701
  33        3S         -0.05770  -0.00571   0.00000   0.00000   0.00261
                          11        12        13        14        15
  11        8PX         1.38626
  12        8PY         0.00000   1.38626
  13        8PZ         0.00000   0.00000   1.35382
  14        9PX        -0.48339   0.00000   0.00000   0.16871
  15        9PY         0.00000  -0.48339   0.00000   0.00000   0.16871
  16        9PZ         0.00000   0.00000  -0.47026   0.00000   0.00000
  17       10PX        -0.02734   0.00000   0.00000   0.01383   0.00000
  18       10PY         0.00000  -0.02734   0.00000   0.00000   0.01383
  19       10PZ         0.00000   0.00000   0.01341   0.00000   0.00000
  20       11PX        -0.26367   0.00000   0.00000   0.10186   0.00000
  21       11PY         0.00000  -0.26367   0.00000   0.00000   0.10186
  22       11PZ         0.00000   0.00000  -0.17492   0.00000   0.00000
  23       12PX        -0.15990   0.00000   0.00000   0.06195   0.00000
  24       12PY         0.00000  -0.15990   0.00000   0.00000   0.06195
  25       12PZ         0.00000   0.00000  -0.05131   0.00000   0.00000
  26       13D 0        0.00000   0.00000   0.02620   0.00000   0.00000
  27       13D+1        0.00633   0.00000   0.00000  -0.00247   0.00000
  28       13D-1        0.00000   0.00633   0.00000   0.00000  -0.00247
  29       13D+2        0.00000   0.00000   0.00000   0.00000   0.00000
  30       13D-2        0.00000   0.00000   0.00000   0.00000   0.00000
  31 2   H  1S          0.00000   0.00000   0.06181   0.00000   0.00000
  32        2S          0.00000   0.00000   0.10681   0.00000   0.00000
  33        3S          0.00000   0.00000   0.02929   0.00000   0.00000
                          16        17        18        19        20
  16        9PZ         0.16342
  17       10PX         0.00000   0.12294
  18       10PY         0.00000   0.00000   0.12294
  19       10PZ        -0.00224   0.00000   0.00000   0.07903
  20       11PX         0.00000   0.28774   0.00000   0.00000   0.70237
  21       11PY         0.00000   0.00000   0.28774   0.00000   0.00000
  22       11PZ         0.06628   0.00000   0.00000   0.17807   0.00000
  23       12PX         0.00000   0.17957   0.00000   0.00000   0.43766
  24       12PY         0.00000   0.00000   0.17957   0.00000   0.00000
  25       12PZ         0.01961   0.00000   0.00000   0.05744   0.00000
  26       13D 0       -0.00997   0.00000   0.00000  -0.02831   0.00000
  27       13D+1        0.00000  -0.00767   0.00000   0.00000  -0.01862
  28       13D-1        0.00000   0.00000  -0.00767   0.00000   0.00000
  29       13D+2        0.00000   0.00000   0.00000   0.00000   0.00000
  30       13D-2        0.00000   0.00000   0.00000   0.00000   0.00000
  31 2   H  1S         -0.02346   0.00000   0.00000  -0.06483   0.00000
  32        2S         -0.04055   0.00000   0.00000  -0.11188   0.00000
  33        3S         -0.01112   0.00000   0.00000  -0.03022   0.00000
                          21        22        23        24        25
  21       11PY         0.70237
  22       11PZ         0.00000   0.43326
  23       12PX         0.00000   0.00000   0.27273
  24       12PY         0.43766   0.00000   0.00000   0.27273
  25       12PZ         0.00000   0.13828   0.00000   0.00000   0.04472
  26       13D 0        0.00000  -0.06943   0.00000   0.00000  -0.02153
  27       13D+1        0.00000   0.00000  -0.01161   0.00000   0.00000
  28       13D-1       -0.01862   0.00000   0.00000  -0.01161   0.00000
  29       13D+2        0.00000   0.00000   0.00000   0.00000   0.00000
  30       13D-2        0.00000   0.00000   0.00000   0.00000   0.00000
  31 2   H  1S          0.00000  -0.16017   0.00000   0.00000  -0.04896
  32        2S          0.00000  -0.27370   0.00000   0.00000  -0.08580
  33        3S          0.00000  -0.07231   0.00000   0.00000  -0.02400
                          26        27        28        29        30
  26       13D 0        0.01184
  27       13D+1        0.00000   0.00049
  28       13D-1        0.00000   0.00000   0.00049
  29       13D+2        0.00000   0.00000   0.00000   0.00000
  30       13D-2        0.00000   0.00000   0.00000   0.00000   0.00000
  31 2   H  1S          0.02808   0.00000   0.00000   0.00000   0.00000
  32        2S          0.04560   0.00000   0.00000   0.00000   0.00000
  33        3S          0.01056   0.00000   0.00000   0.00000   0.00000
                          31        32        33
  31 2   H  1S          0.06742
  32        2S          0.10709   0.17716
  33        3S          0.02323   0.04316   0.01357
    Full Mulliken population analysis:
                           1         2         3         4         5
   1 1   Cl 1S          0.37142
   2        2S          0.45470   1.09903
   3        3S         -0.02971  -0.21725   0.61067
   4        4S         -0.02094  -0.16767   0.67541   1.08097
   5        5S          0.00135   0.01244  -0.08581  -0.31700   0.79340
   6        6S          0.00075   0.00684  -0.04715  -0.17600   0.58741
   7        7S          0.00000   0.00002  -0.00016  -0.00076   0.00488
   8        7PX         0.00000   0.00000   0.00000   0.00000   0.00000
   9        7PY         0.00000   0.00000   0.00000   0.00000   0.00000
  10        7PZ         0.00000   0.00000   0.00000   0.00000   0.00000
  11        8PX         0.00000   0.00000   0.00000   0.00000   0.00000
  12        8PY         0.00000   0.00000   0.00000   0.00000   0.00000
  13        8PZ         0.00000   0.00000   0.00000   0.00000   0.00000
  14        9PX         0.00000   0.00000   0.00000   0.00000   0.00000
  15        9PY         0.00000   0.00000   0.00000   0.00000   0.00000
  16        9PZ         0.00000   0.00000   0.00000   0.00000   0.00000
  17       10PX         0.00000   0.00000   0.00000   0.00000   0.00000
  18       10PY         0.00000   0.00000   0.00000   0.00000   0.00000
  19       10PZ         0.00000   0.00000   0.00000   0.00000   0.00000
  20       11PX         0.00000   0.00000   0.00000   0.00000   0.00000
  21       11PY         0.00000   0.00000   0.00000   0.00000   0.00000
  22       11PZ         0.00000   0.00000   0.00000   0.00000   0.00000
  23       12PX         0.00000   0.00000   0.00000   0.00000   0.00000
  24       12PY         0.00000   0.00000   0.00000   0.00000   0.00000
  25       12PZ         0.00000   0.00000   0.00000   0.00000   0.00000
  26       13D 0        0.00000   0.00000   0.00000   0.00000   0.00000
  27       13D+1        0.00000   0.00000   0.00000   0.00000   0.00000
  28       13D-1        0.00000   0.00000   0.00000   0.00000   0.00000
  29       13D+2        0.00000   0.00000   0.00000   0.00000   0.00000
  30       13D-2        0.00000   0.00000   0.00000   0.00000   0.00000
  31 2   H  1S          0.00000   0.00000  -0.00003  -0.00026   0.00455
  32        2S          0.00000   0.00001  -0.00001  -0.00069   0.00183
  33        3S         -0.00002  -0.00017   0.00121   0.00439  -0.01764
                           6         7         8         9        10
   6        6S          0.70072
   7        7S          0.01282   0.00251
   8        7PX         0.00000   0.00000   0.00241
   9        7PY         0.00000   0.00000   0.00000   0.00241
  10        7PZ         0.00000   0.00000   0.00000   0.00000   0.00054
  11        8PX         0.00000   0.00000   0.00039   0.00000   0.00000
  12        8PY         0.00000   0.00000   0.00000   0.00039   0.00000
  13        8PZ         0.00000   0.00000   0.00000   0.00000   0.00011
  14        9PX         0.00000   0.00000  -0.00009   0.00000   0.00000
  15        9PY         0.00000   0.00000   0.00000  -0.00009   0.00000
  16        9PZ         0.00000   0.00000   0.00000   0.00000  -0.00002
  17       10PX         0.00000   0.00000  -0.00188   0.00000   0.00000
  18       10PY         0.00000   0.00000   0.00000  -0.00188   0.00000
  19       10PZ         0.00000   0.00000   0.00000   0.00000  -0.00060
  20       11PX         0.00000   0.00000  -0.01305   0.00000   0.00000
  21       11PY         0.00000   0.00000   0.00000  -0.01305   0.00000
  22       11PZ         0.00000   0.00000   0.00000   0.00000  -0.00396
  23       12PX         0.00000   0.00000  -0.02092   0.00000   0.00000
  24       12PY         0.00000   0.00000   0.00000  -0.02092   0.00000
  25       12PZ         0.00000   0.00000   0.00000   0.00000  -0.00352
  26       13D 0        0.00000   0.00000   0.00000   0.00000   0.00000
  27       13D+1        0.00000   0.00000   0.00000   0.00000   0.00000
  28       13D-1        0.00000   0.00000   0.00000   0.00000   0.00000
  29       13D+2        0.00000   0.00000   0.00000   0.00000   0.00000
  30       13D-2        0.00000   0.00000   0.00000   0.00000   0.00000
  31 2   H  1S          0.00281  -0.00197   0.00000   0.00000  -0.00060
  32        2S         -0.02324  -0.00868   0.00000   0.00000  -0.00278
  33        3S         -0.03701  -0.00425   0.00000   0.00000  -0.00140
                          11        12        13        14        15
  11        8PX         1.38626
  12        8PY         0.00000   1.38626
  13        8PZ         0.00000   0.00000   1.35382
  14        9PX         0.25116   0.00000   0.00000   0.16871
  15        9PY         0.00000   0.25116   0.00000   0.00000   0.16871
  16        9PZ         0.00000   0.00000   0.24434   0.00000   0.00000
  17       10PX        -0.01671   0.00000   0.00000   0.00200   0.00000
  18       10PY         0.00000  -0.01671   0.00000   0.00000   0.00200
  19       10PZ         0.00000   0.00000   0.00820   0.00000   0.00000
  20       11PX        -0.07239   0.00000   0.00000   0.01294   0.00000
  21       11PY         0.00000  -0.07239   0.00000   0.00000   0.01294
  22       11PZ         0.00000   0.00000  -0.04803   0.00000   0.00000
  23       12PX        -0.01142   0.00000   0.00000   0.00249   0.00000
  24       12PY         0.00000  -0.01142   0.00000   0.00000   0.00249
  25       12PZ         0.00000   0.00000  -0.00367   0.00000   0.00000
  26       13D 0        0.00000   0.00000   0.00000   0.00000   0.00000
  27       13D+1        0.00000   0.00000   0.00000   0.00000   0.00000
  28       13D-1        0.00000   0.00000   0.00000   0.00000   0.00000
  29       13D+2        0.00000   0.00000   0.00000   0.00000   0.00000
  30       13D-2        0.00000   0.00000   0.00000   0.00000   0.00000
  31 2   H  1S          0.00000   0.00000  -0.00072   0.00000   0.00000
  32        2S          0.00000   0.00000  -0.00630   0.00000   0.00000
  33        3S          0.00000   0.00000  -0.00084   0.00000   0.00000
                          16        17        18        19        20
  16        9PZ         0.16342
  17       10PX         0.00000   0.12294
  18       10PY         0.00000   0.00000   0.12294
  19       10PZ        -0.00032   0.00000   0.00000   0.07903
  20       11PX         0.00000   0.21463   0.00000   0.00000   0.70237
  21       11PY         0.00000   0.00000   0.21463   0.00000   0.00000
  22       11PZ         0.00842   0.00000   0.00000   0.13282   0.00000
  23       12PX         0.00000   0.04816   0.00000   0.00000   0.27674
  24       12PY         0.00000   0.00000   0.04816   0.00000   0.00000
  25       12PZ         0.00079   0.00000   0.00000   0.01541   0.00000
  26       13D 0        0.00000   0.00000   0.00000   0.00000   0.00000
  27       13D+1        0.00000   0.00000   0.00000   0.00000   0.00000
  28       13D-1        0.00000   0.00000   0.00000   0.00000   0.00000
  29       13D+2        0.00000   0.00000   0.00000   0.00000   0.00000
  30       13D-2        0.00000   0.00000   0.00000   0.00000   0.00000
  31 2   H  1S          0.00025   0.00000   0.00000   0.00631   0.00000
  32        2S          0.00136   0.00000   0.00000   0.02483   0.00000
  33        3S          0.00018   0.00000   0.00000   0.00341   0.00000
                          21        22        23        24        25
  21       11PY         0.70237
  22       11PZ         0.00000   0.43326
  23       12PX         0.00000   0.00000   0.27273
  24       12PY         0.27674   0.00000   0.00000   0.27273
  25       12PZ         0.00000   0.08744   0.00000   0.00000   0.04472
  26       13D 0        0.00000   0.00000   0.00000   0.00000   0.00000
  27       13D+1        0.00000   0.00000   0.00000   0.00000   0.00000
  28       13D-1        0.00000   0.00000   0.00000   0.00000   0.00000
  29       13D+2        0.00000   0.00000   0.00000   0.00000   0.00000
  30       13D-2        0.00000   0.00000   0.00000   0.00000   0.00000
  31 2   H  1S          0.00000   0.05038   0.00000   0.00000   0.01555
  32        2S          0.00000   0.13469   0.00000   0.00000   0.05143
  33        3S          0.00000   0.02111   0.00000   0.00000   0.01361
                          26        27        28        29        30
  26       13D 0        0.01184
  27       13D+1        0.00000   0.00049
  28       13D-1        0.00000   0.00000   0.00049
  29       13D+2        0.00000   0.00000   0.00000   0.00000
  30       13D-2        0.00000   0.00000   0.00000   0.00000   0.00000
  31 2   H  1S          0.00661   0.00000   0.00000   0.00000   0.00000
  32        2S          0.00991   0.00000   0.00000   0.00000   0.00000
  33        3S          0.00048   0.00000   0.00000   0.00000   0.00000
                          31        32        33
  31 2   H  1S          0.06742
  32        2S          0.07565   0.17716
  33        3S          0.00868   0.03405   0.01357
     Gross orbital populations:
                           1
   1 1   Cl 1S          0.77755
   2        2S          1.18795
   3        3S          0.90716
   4        4S          1.07745
   5        5S          0.98542
   6        6S          1.02794
   7        7S          0.00440
   8        7PX        -0.03313
   9        7PY        -0.03313
  10        7PZ        -0.01222
  11        8PX         1.53728
  12        8PY         1.53728
  13        8PZ         1.54691
  14        9PX         0.43720
  15        9PY         0.43720
  16        9PZ         0.41841
  17       10PX         0.36915
  18       10PY         0.36915
  19       10PZ         0.26910
  20       11PX         1.12124
  21       11PY         1.12124
  22       11PZ         0.81613
  23       12PX         0.56778
  24       12PY         0.56778
  25       12PZ         0.22177
  26       13D 0        0.02883
  27       13D+1        0.00049
  28       13D-1        0.00049
  29       13D+2        0.00000
  30       13D-2        0.00000
  31 2   H  1S          0.23462
  32        2S          0.46922
  33        3S          0.03936
          Condensed to atoms (all electrons):
               1          2
     1  Cl  17.008492   0.248309
     2  H    0.248309   0.494890
 Mulliken charges:
               1
     1  Cl  -0.256801
     2  H    0.256801
 Sum of Mulliken charges =   0.00000
 Mulliken charges with hydrogens summed into heavy atoms:
               1
     1  Cl   0.000000
 APT charges:
               1
     1  Cl  -0.442508
     2  H    0.442508
 Sum of APT charges =   0.00000
 APT charges with hydrogens summed into heavy atoms:
               1
     1  Cl   0.000000
 Electronic spatial extent (au):  <R**2>=             34.3956
 Charge=              0.0000 electrons
 Dipole moment (field-independent basis, Debye):
    X=              0.0000    Y=              0.0000    Z=             -1.5276  Tot=              1.5276
 Quadrupole moment (field-independent basis, Debye-Ang):
   XX=            -14.2323   YY=            -14.2323   ZZ=            -10.4241
   XY=              0.0000   XZ=              0.0000   YZ=              0.0000
 Traceless Quadrupole moment (field-independent basis, Debye-Ang):
   XX=             -1.2694   YY=             -1.2694   ZZ=              2.5388
   XY=              0.0000   XZ=              0.0000   YZ=              0.0000
 Octapole moment (field-independent basis, Debye-Ang**2):
  XXX=              0.0000  YYY=              0.0000  ZZZ=             -2.7816  XYY=              0.0000
  XXY=              0.0000  XXZ=             -0.4141  XZZ=              0.0000  YZZ=              0.0000
  YYZ=             -0.4141  XYZ=              0.0000
 Hexadecapole moment (field-independent basis, Debye-Ang**3):
 XXXX=            -16.9774 YYYY=            -16.9774 ZZZZ=            -14.3387 XXXY=              0.0000
 XXXZ=              0.0000 YYYX=              0.0000 YYYZ=              0.0000 ZZZX=              0.0000
 ZZZY=              0.0000 XXYY=             -5.6591 XXZZ=             -5.7963 YYZZ=             -5.7963
 XXYZ=              0.0000 YYXZ=              0.0000 ZZXY=              0.0000
 N-N= 7.055696145600D+00 E-N=-1.109883576657D+03  KE= 4.601194399552D+02
 Symmetry A1   KE= 3.686120348962D+02
 Symmetry A2   KE= 0.000000000000D+00
 Symmetry B1   KE= 4.575370252950D+01
 Symmetry B2   KE= 4.575370252950D+01
 Orbital energies and kinetic energies (alpha):
                                 1                 2
   1         O              -104.849938        137.113290
   2         O               -10.576607         21.812098
   3         O                -8.045472         20.615466
   4         O                -8.041602         20.654874
   5         O                -8.041602         20.654874
   6         O                -1.121214          2.813880
   7         O                -0.629890          1.951283
   8         O                -0.477233          2.221977
   9         O                -0.477233          2.221977
  10         V                 0.091638          0.429706
  11         V                 0.122018          0.260320
  12         V                 0.125382          0.253497
  13         V                 0.125382          0.253497
  14         V                 0.167534          0.817538
  15         V                 0.471404          0.845790
  16         V                 0.587835          1.862978
  17         V                 0.592462          1.500130
  18         V                 0.592462          1.500130
  19         V                 1.015122          3.768849
  20         V                 1.111772          2.625826
  21         V                 1.111772          2.625826
  22         V                 1.138238          2.625000
  23         V                 1.138238          2.625000
  24         V                 1.370172          2.802640
  25         V                 2.454670          6.502216
  26         V                 2.590659          8.642149
  27         V                 2.590659          8.642149
  28         V                 2.809880          6.407098
  29         V                10.181928         36.826375
  30         V                26.608464         43.869073
  31         V                26.608464         43.869073
  32         V                26.755293         44.254711
  33         V               219.007780        553.013711
 Total kinetic energy from orbitals= 4.601194399552D+02
  Exact polarizability:   0.000   0.000   0.000   0.000   0.000   0.000
 Approx polarizability:   6.474   0.000   6.474   0.000   0.000  11.309
 No NMR shielding tensors so no spin-rotation constants.
 Leave Link  601 at Wed Sep 03 20:42:26 2025, MaxMem=   536870912 cpu:               1.0 elap:               0.0
 (Enter C:\G16W\l701.exe)
 ... and contract with generalized density number  0.
 Compute integral second derivatives.
 Leave Link  701 at Wed Sep 03 20:42:26 2025, MaxMem=   536870912 cpu:               0.0 elap:               0.0
 (Enter C:\G16W\l702.exe)
 L702 exits ... SP integral derivatives will be done elsewhere.
 Leave Link  702 at Wed Sep 03 20:42:26 2025, MaxMem=   536870912 cpu:               0.0 elap:               0.0
 (Enter C:\G16W\l703.exe)
 Integral derivatives from FoFJK, PRISM(SPDF).
 Compute integral second derivatives, UseDBF=F ICtDFT=           0.
 Calling FoFJK, ICntrl=    100147 FMM=F ISym2X=1 I1Cent= 0 IOpClX= 0 NMat=1 NMatS=1 NMatT=0.
 FoFJK:  IHMeth= 1 ICntrl=  100147 DoSepK=F KAlg= 0 I1Cent=           0 FoldK=F
 IRaf=         0 NMat=       1 IRICut=       1 DoRegI=T DoRafI=F ISym2E= 1 IDoP0=0 IntGTp=1.
 FoFCou: FMM=F IPFlag=           0 FMFlag=      100000 FMFlg1=         800
         NFxFlg=           0 DoJE=F BraDBF=F KetDBF=F FulRan=T
         wScrn=  0.000000 ICntrl=    100147 IOpCl=  0 I1Cent=           0 NGrid=           0
         NMat0=    1 NMatS0=      1 NMatT0=    0 NMatD0=    1 NMtDS0=    0 NMtDT0=    0
 Petite list used in FoFCou.
 Leave Link  703 at Wed Sep 03 20:42:26 2025, MaxMem=   536870912 cpu:               0.0 elap:               0.1
 (Enter C:\G16W\l716.exe)
 Dipole        = 0.00000000D+00 0.00000000D+00-6.00995665D-01
 Polarizability= 0.00000000D+00 0.00000000D+00 0.00000000D+00
                 0.00000000D+00 0.00000000D+00 0.00000000D+00
 ***** Axes restored to original set *****
 -------------------------------------------------------------------
 Center     Atomic                   Forces (Hartrees/Bohr)
 Number     Number              X              Y              Z
 -------------------------------------------------------------------
      1       17           0.000000000    0.000000000    0.002380037
      2        1           0.000000000    0.000000000   -0.002380037
 -------------------------------------------------------------------
 Cartesian Forces:  Max     0.002380037 RMS     0.001374115
 Force constants in Cartesian coordinates: 
                1             2             3             4             5 
      1  0.987808D-03
      2  0.000000D+00  0.987808D-03
      3  0.000000D+00  0.000000D+00  0.351007D+00
      4 -0.987808D-03  0.000000D+00  0.000000D+00  0.987808D-03
      5  0.000000D+00 -0.987808D-03  0.000000D+00  0.000000D+00  0.987808D-03
      6  0.000000D+00  0.000000D+00 -0.351007D+00  0.000000D+00  0.000000D+00
                6 
      6  0.351007D+00
 FormGI is forming the generalized inverse of G from B-inverse, IUseBI=4.
 Force constants in internal coordinates: 
                1 
      1  0.351007D+00
 Leave Link  716 at Wed Sep 03 20:42:26 2025, MaxMem=   536870912 cpu:               0.0 elap:               0.0
 (Enter C:\G16W\l103.exe)

 GradGradGradGradGradGradGradGradGradGradGradGradGradGradGradGradGradGrad
 Berny optimization.
 Red2BG is reusing G-inverse.
 Internal  Forces:  Max     0.002380037 RMS     0.002380037
 Search for a local minimum.
 Step number   1 out of a maximum of   20
 All quantities printed in internal units (Hartrees-Bohrs-Radians)
 RMS Force = .23800D-02 SwitMx=.10000D-02 MixMth= 1
 Mixed Optimization -- RFO/linear search
 Second derivative matrix not updated -- analytic derivatives used.
 The second derivative matrix:
                          R1
           R1           0.35101
 ITU=  0
     Eigenvalues ---    0.35101
 RFO step:  Lambda=-1.61373487D-05 EMin= 3.51006610D-01
 Linear search not attempted -- first point.
 Iteration  1 RMS(Cart)=  0.00479439 RMS(Int)=  0.00000000
 Iteration  2 RMS(Cart)=  0.00000000 RMS(Int)=  0.00000000
 ITry= 1 IFail=0 DXMaxC= 3.39D-03 DCOld= 1.00D+10 DXMaxT= 3.00D-01 DXLimC= 3.00D+00 Rises=F
 ClnCor:  largest displacement from symmetrization is 0.00D+00 for atom     0.
 Variable       Old X    -DE/DX   Delta X   Delta X   Delta X     New X
                                 (Linear)    (Quad)   (Total)
    R1        2.40940  -0.00238   0.00000  -0.00678  -0.00678   2.40262
         Item               Value     Threshold  Converged?
 Maximum Force            0.002380     0.000015     NO 
 RMS     Force            0.002380     0.000010     NO 
 Maximum Displacement     0.003390     0.000060     NO 
 RMS     Displacement     0.004794     0.000040     NO 
 Predicted change in Energy=-8.069045D-06
 Lowest energy point so far.  Saving SCF results.
 GradGradGradGradGradGradGradGradGradGradGradGradGradGradGradGradGradGrad

 Leave Link  103 at Wed Sep 03 20:42:26 2025, MaxMem=   536870912 cpu:               0.0 elap:               0.0
 (Enter C:\G16W\l202.exe)
                          Input orientation:                          
 ---------------------------------------------------------------------
 Center     Atomic      Atomic             Coordinates (Angstroms)
 Number     Number       Type             X           Y           Z
 ---------------------------------------------------------------------
      1         17           0        0.000000    0.000000    0.001794
      2          1           0        0.000000    0.000000    1.273206
 ---------------------------------------------------------------------
 Stoichiometry    ClH
 Framework group  C*V[C*(HCl)]
 Deg. of freedom     1
 Full point group                 C*V     NOp   4
 RotChk:  IX=0 Diff= 0.00D+00
 Largest Abelian subgroup         C2V     NOp   4
 Largest concise Abelian subgroup C1      NOp   1
                         Standard orientation:                         
 ---------------------------------------------------------------------
 Center     Atomic      Atomic             Coordinates (Angstroms)
 Number     Number       Type             X           Y           Z
 ---------------------------------------------------------------------
      1         17           0        0.000000    0.000000    0.070634
      2          1           0        0.000000    0.000000   -1.200778
 ---------------------------------------------------------------------
 Rotational constants (GHZ):           0.0000000         319.1531245         319.1531245
 Leave Link  202 at Wed Sep 03 20:42:26 2025, MaxMem=   536870912 cpu:               0.0 elap:               0.0
 (Enter C:\G16W\l301.exe)
 Standard basis: 6-311+G(d) (5D, 7F)
 Ernie: Thresh=  0.10000D-02 Tol=  0.10000D-05 Strict=F.
 There are    19 symmetry adapted cartesian basis functions of A1  symmetry.
 There are     1 symmetry adapted cartesian basis functions of A2  symmetry.
 There are     7 symmetry adapted cartesian basis functions of B1  symmetry.
 There are     7 symmetry adapted cartesian basis functions of B2  symmetry.
 There are    18 symmetry adapted basis functions of A1  symmetry.
 There are     1 symmetry adapted basis functions of A2  symmetry.
 There are     7 symmetry adapted basis functions of B1  symmetry.
 There are     7 symmetry adapted basis functions of B2  symmetry.
    33 basis functions,    58 primitive gaussians,    34 cartesian basis functions
     9 alpha electrons        9 beta electrons
       nuclear repulsion energy         7.0756076076 Hartrees.
 IExCor=    0 DFT=F Ex=HF Corr=None ExCW=0 ScaHFX=  1.000000
 ScaDFX=  1.000000  1.000000  1.000000  1.000000 ScalE2=  1.000000  1.000000
 IRadAn=      5 IRanWt=     -1 IRanGd=            0 ICorTp=0 IEmpDi=  4
 NAtoms=    2 NActive=    2 NUniq=    2 SFac= 1.00D+00 NAtFMM=   60 NAOKFM=F Big=F
 Integral buffers will be    131072 words long.
 Raffenetti 1 integral format.
 Two-electron integral symmetry is turned on.
 Leave Link  301 at Wed Sep 03 20:42:26 2025, MaxMem=   536870912 cpu:               0.0 elap:               0.0
 (Enter C:\G16W\l302.exe)
 NPDir=0 NMtPBC=     1 NCelOv=     1 NCel=       1 NClECP=     1 NCelD=      1
         NCelK=      1 NCelE2=     1 NClLst=     1 CellRange=     0.0.
 One-electron integrals computed using PRISM.
 One-electron integral symmetry used in STVInt
 NBasis=    33 RedAO= T EigKep=  2.37D-02  NBF=    18     1     7     7
 NBsUse=    33 1.00D-06 EigRej= -1.00D+00 NBFU=    18     1     7     7
 Leave Link  302 at Wed Sep 03 20:42:26 2025, MaxMem=   536870912 cpu:               0.0 elap:               0.0
 (Enter C:\G16W\l303.exe)
 DipDrv:  MaxL=1.
 Leave Link  303 at Wed Sep 03 20:42:26 2025, MaxMem=   536870912 cpu:               0.0 elap:               0.0
 (Enter C:\G16W\l401.exe)
 Initial guess from the checkpoint file:  "HCl.chk"
 B after Tr=     0.000000    0.000000    0.000000
         Rot=    1.000000    0.000000    0.000000    0.000000 Ang=   0.00 deg.
 Guess basis will be translated and rotated to current coordinates.
 JPrj=2 DoOrth=T DoCkMO=T.
 Initial guess orbital symmetries:
       Occupied  (SG) (SG) (SG) (PI) (PI) (SG) (SG) (PI) (PI)
       Virtual   (SG) (SG) (PI) (PI) (SG) (SG) (SG) (PI) (PI) (SG)
                 (PI) (PI) (DLTA) (DLTA) (SG) (SG) (PI) (PI) (SG)
                 (SG) (PI) (PI) (SG) (SG)
 The electronic state of the initial guess is 1-SG.
 Leave Link  401 at Wed Sep 03 20:42:26 2025, MaxMem=   536870912 cpu:               0.0 elap:               0.0
 (Enter C:\G16W\l502.exe)
 Keep R1 ints in memory in symmetry-blocked form, NReq=993545.
 FoFCou: FMM=F IPFlag=           0 FMFlag=           0 FMFlg1=           0
         NFxFlg=           0 DoJE=F BraDBF=F KetDBF=F FulRan=T
         wScrn=  0.000000 ICntrl=       600 IOpCl=  0 I1Cent=           0 NGrid=           0
         NMat0=    1 NMatS0=    561 NMatT0=    0 NMatD0=    1 NMtDS0=    0 NMtDT0=    0
 Petite list used in FoFCou.
 Closed shell SCF:
 Using DIIS extrapolation, IDIIS=  1040.
 NGot=   536870912 LenX=   536819183 LenY=   536817586
 Requested convergence on RMS density matrix=1.00D-08 within 128 cycles.
 Requested convergence on MAX density matrix=1.00D-06.
 Requested convergence on             energy=1.00D-06.
 No special actions if energy rises.

 Cycle   1  Pass 1  IDiag  1:
 E= -460.087167627454    
 DIIS: error= 3.92D-04 at cycle   1 NSaved=   1.
 NSaved= 1 IEnMin= 1 EnMin= -460.087167627454     IErMin= 1 ErrMin= 3.92D-04
 ErrMax= 3.92D-04  0.00D+00 EMaxC= 1.00D-01 BMatC= 2.93D-06 BMatP= 2.93D-06
 IDIUse=3 WtCom= 9.96D-01 WtEn= 3.92D-03
 Coeff-Com:  0.100D+01
 Coeff-En:   0.100D+01
 Coeff:      0.100D+01
 Gap=     0.569 Goal=   None    Shift=    0.000
 RMSDP=3.88D-05 MaxDP=2.99D-04              OVMax= 5.98D-04

 Cycle   2  Pass 1  IDiag  1:
 E= -460.087170195259     Delta-E=       -0.000002567805 Rises=F Damp=F
 DIIS: error= 4.49D-05 at cycle   2 NSaved=   2.
 NSaved= 2 IEnMin= 2 EnMin= -460.087170195259     IErMin= 2 ErrMin= 4.49D-05
 ErrMax= 4.49D-05  0.00D+00 EMaxC= 1.00D-01 BMatC= 1.06D-07 BMatP= 2.93D-06
 IDIUse=1 WtCom= 1.00D+00 WtEn= 0.00D+00
 Coeff-Com: -0.498D-01 0.105D+01
 Coeff:     -0.498D-01 0.105D+01
 Gap=     0.569 Goal=   None    Shift=    0.000
 RMSDP=1.07D-05 MaxDP=1.19D-04 DE=-2.57D-06 OVMax= 1.51D-04

 Cycle   3  Pass 1  IDiag  1:
 E= -460.087170327122     Delta-E=       -0.000000131863 Rises=F Damp=F
 DIIS: error= 2.29D-05 at cycle   3 NSaved=   3.
 NSaved= 3 IEnMin= 3 EnMin= -460.087170327122     IErMin= 3 ErrMin= 2.29D-05
 ErrMax= 2.29D-05  0.00D+00 EMaxC= 1.00D-01 BMatC= 6.94D-09 BMatP= 1.06D-07
 IDIUse=1 WtCom= 1.00D+00 WtEn= 0.00D+00
 Coeff-Com: -0.338D-01 0.692D-01 0.965D+00
 Coeff:     -0.338D-01 0.692D-01 0.965D+00
 Gap=     0.569 Goal=   None    Shift=    0.000
 RMSDP=2.49D-06 MaxDP=1.81D-05 DE=-1.32D-07 OVMax= 6.02D-05

 Cycle   4  Pass 1  IDiag  1:
 E= -460.087170337752     Delta-E=       -0.000000010630 Rises=F Damp=F
 DIIS: error= 3.80D-06 at cycle   4 NSaved=   4.
 NSaved= 4 IEnMin= 4 EnMin= -460.087170337752     IErMin= 4 ErrMin= 3.80D-06
 ErrMax= 3.80D-06  0.00D+00 EMaxC= 1.00D-01 BMatC= 3.34D-10 BMatP= 6.94D-09
 IDIUse=1 WtCom= 1.00D+00 WtEn= 0.00D+00
 Coeff-Com:  0.505D-02-0.459D-01-0.150D+00 0.119D+01
 Coeff:      0.505D-02-0.459D-01-0.150D+00 0.119D+01
 Gap=     0.569 Goal=   None    Shift=    0.000
 RMSDP=9.70D-07 MaxDP=9.34D-06 DE=-1.06D-08 OVMax= 2.07D-05

 Cycle   5  Pass 1  IDiag  1:
 E= -460.087170338642     Delta-E=       -0.000000000890 Rises=F Damp=F
 DIIS: error= 4.64D-07 at cycle   5 NSaved=   5.
 NSaved= 5 IEnMin= 5 EnMin= -460.087170338642     IErMin= 5 ErrMin= 4.64D-07
 ErrMax= 4.64D-07  0.00D+00 EMaxC= 1.00D-01 BMatC= 1.10D-11 BMatP= 3.34D-10
 IDIUse=1 WtCom= 1.00D+00 WtEn= 0.00D+00
 Coeff-Com:  0.161D-02-0.608D-02-0.463D-01 0.720D-01 0.979D+00
 Coeff:      0.161D-02-0.608D-02-0.463D-01 0.720D-01 0.979D+00
 Gap=     0.569 Goal=   None    Shift=    0.000
 RMSDP=1.56D-07 MaxDP=1.70D-06 DE=-8.90D-10 OVMax= 3.63D-06

 Cycle   6  Pass 1  IDiag  1:
 E= -460.087170338665     Delta-E=       -0.000000000023 Rises=F Damp=F
 DIIS: error= 9.67D-08 at cycle   6 NSaved=   6.
 NSaved= 6 IEnMin= 6 EnMin= -460.087170338665     IErMin= 6 ErrMin= 9.67D-08
 ErrMax= 9.67D-08  0.00D+00 EMaxC= 1.00D-01 BMatC= 3.56D-13 BMatP= 1.10D-11
 IDIUse=1 WtCom= 1.00D+00 WtEn= 0.00D+00
 Coeff-Com: -0.345D-03 0.205D-02 0.937D-02-0.498D-01-0.669D-01 0.111D+01
 Coeff:     -0.345D-03 0.205D-02 0.937D-02-0.498D-01-0.669D-01 0.111D+01
 Gap=     0.569 Goal=   None    Shift=    0.000
 RMSDP=3.49D-08 MaxDP=2.88D-07 DE=-2.31D-11 OVMax= 4.99D-07

 Cycle   7  Pass 1  IDiag  1:
 E= -460.087170338665     Delta-E=       -0.000000000001 Rises=F Damp=F
 DIIS: error= 1.56D-08 at cycle   7 NSaved=   7.
 NSaved= 7 IEnMin= 7 EnMin= -460.087170338665     IErMin= 7 ErrMin= 1.56D-08
 ErrMax= 1.56D-08  0.00D+00 EMaxC= 1.00D-01 BMatC= 1.22D-14 BMatP= 3.56D-13
 IDIUse=1 WtCom= 1.00D+00 WtEn= 0.00D+00
 Coeff-Com:  0.324D-05-0.109D-03-0.563D-03 0.769D-02-0.242D-01-0.180D+00
 Coeff-Com:  0.120D+01
 Coeff:      0.324D-05-0.109D-03-0.563D-03 0.769D-02-0.242D-01-0.180D+00
 Coeff:      0.120D+01
 Gap=     0.569 Goal=   None    Shift=    0.000
 RMSDP=7.47D-09 MaxDP=6.46D-08 DE=-5.12D-13 OVMax= 1.04D-07

 SCF Done:  E(RHF) =  -460.087170339     A.U. after    7 cycles
            NFock=  7  Conv=0.75D-08     -V/T= 1.9999
 KE= 4.601254957001D+02 PE=-1.109927601607D+03 EE= 1.826393279602D+02
 Leave Link  502 at Wed Sep 03 20:42:26 2025, MaxMem=   536870912 cpu:               0.0 elap:               0.1
 (Enter C:\G16W\l701.exe)
 ... and contract with generalized density number  0.
 Compute integral first derivatives.
 Leave Link  701 at Wed Sep 03 20:42:26 2025, MaxMem=   536870912 cpu:               0.0 elap:               0.0
 (Enter C:\G16W\l702.exe)
 L702 exits ... SP integral derivatives will be done elsewhere.
 Leave Link  702 at Wed Sep 03 20:42:26 2025, MaxMem=   536870912 cpu:               0.0 elap:               0.0
 (Enter C:\G16W\l703.exe)
 Integral derivatives from FoFJK, PRISM(SPDF).
 Compute integral first derivatives, UseDBF=F ICtDFT=           0.
 Calling FoFJK, ICntrl=      2127 FMM=F ISym2X=1 I1Cent= 0 IOpClX= 0 NMat=1 NMatS=1 NMatT=0.
 FoFJK:  IHMeth= 1 ICntrl=    2127 DoSepK=F KAlg= 0 I1Cent=           0 FoldK=F
 IRaf=         0 NMat=       1 IRICut=       1 DoRegI=T DoRafI=F ISym2E= 1 IDoP0=0 IntGTp=1.
 FoFCou: FMM=F IPFlag=           0 FMFlag=      100000 FMFlg1=         800
         NFxFlg=           0 DoJE=F BraDBF=F KetDBF=F FulRan=T
         wScrn=  0.000000 ICntrl=      2127 IOpCl=  0 I1Cent=           0 NGrid=           0
         NMat0=    1 NMatS0=      1 NMatT0=    0 NMatD0=    1 NMtDS0=    0 NMtDT0=    0
 Petite list used in FoFCou.
 Leave Link  703 at Wed Sep 03 20:42:26 2025, MaxMem=   536870912 cpu:               0.0 elap:               0.1
 (Enter C:\G16W\l716.exe)
 Dipole        = 0.00000000D+00 0.00000000D+00-5.99883744D-01
 ***** Axes restored to original set *****
 -------------------------------------------------------------------
 Center     Atomic                   Forces (Hartrees/Bohr)
 Number     Number              X              Y              Z
 -------------------------------------------------------------------
      1       17           0.000000000    0.000000000   -0.000023009
[...]
     1  Cl  17.008611   0.248261
     2  H    0.248261   0.494867
 Mulliken charges:
               1
     1  Cl  -0.256872
     2  H    0.256872
 Sum of Mulliken charges =   0.00000
 Mulliken charges with hydrogens summed into heavy atoms:
               1
     1  Cl   0.000000
 APT charges:
               1
     1  Cl  -0.221093
     2  H    0.221093
 Sum of APT charges =   0.00000
 APT charges with hydrogens summed into heavy atoms:
               1
     1  Cl   0.000000
 Electronic spatial extent (au):  <R**2>=             34.3641
 Charge=              0.0000 electrons
 Dipole moment (field-independent basis, Debye):
    X=              0.0000    Y=              0.0000    Z=             -1.5248  Tot=              1.5248
 Quadrupole moment (field-independent basis, Debye-Ang):
   XX=            -14.2282   YY=            -14.2282   ZZ=            -10.4310
   XY=              0.0000   XZ=              0.0000   YZ=              0.0000
 Traceless Quadrupole moment (field-independent basis, Debye-Ang):
   XX=             -1.2658   YY=             -1.2658   ZZ=              2.5315
   XY=              0.0000   XZ=              0.0000   YZ=              0.0000
 Octapole moment (field-independent basis, Debye-Ang**2):
  XXX=              0.0000  YYY=              0.0000  ZZZ=             -2.7669  XYY=              0.0000
  XXY=              0.0000  XXZ=             -0.4173  XZZ=              0.0000  YZZ=              0.0000
  YYZ=             -0.4173  XYZ=              0.0000
 Hexadecapole moment (field-independent basis, Debye-Ang**3):
 XXXX=            -16.9709 YYYY=            -16.9709 ZZZZ=            -14.3238 XXXY=              0.0000
 XXXZ=              0.0000 YYYX=              0.0000 YYYZ=              0.0000 ZZZX=              0.0000
 ZZZY=              0.0000 XXYY=             -5.6570 XXZZ=             -5.7855 YYZZ=             -5.7855
 XXYZ=              0.0000 YYXZ=              0.0000 ZZXY=              0.0000
 N-N= 7.075418236120D+00 E-N=-1.109927183144D+03  KE= 4.601254378244D+02
 Symmetry A1   KE= 3.686184477162D+02
 Symmetry A2   KE=-1.031880474527D-50
 Symmetry B1   KE= 4.575349505414D+01
 Symmetry B2   KE= 4.575349505414D+01
 Orbital energies and kinetic energies (alpha):
                                 1                 2
   1         O              -104.849721        137.113250
   2         O               -10.576496         21.811933
   3         O                -8.045379         20.615388
   4         O                -8.041485         20.654774
   5         O                -8.041485         20.654774
   6         O                -1.121904          2.812771
   7         O                -0.630648          1.955882
   8         O                -0.477299          2.221973
   9         O                -0.477299          2.221973
  10         V                 0.091720          0.423465
  11         V                 0.122012          0.260577
  12         V                 0.125372          0.253469
  13         V                 0.125372          0.253469
  14         V                 0.168352          0.820323
  15         V                 0.471081          0.844565
  16         V                 0.588665          1.866133
  17         V                 0.592440          1.500047
  18         V                 0.592440          1.500047
  19         V                 1.015404          3.771162
  20         V                 1.111540          2.625838
  21         V                 1.111540          2.625838
  22         V                 1.138189          2.625000
  23         V                 1.138189          2.625000
  24         V                 1.371450          2.801899
  25         V                 2.455523          6.507279
  26         V                 2.590632          8.642361
  27         V                 2.590632          8.642361
  28         V                 2.809463          6.404068
  29         V                10.182329         36.826873
  30         V                26.608500         43.869064
  31         V                26.608500         43.869064
  32         V                26.755867         44.256222
  33         V               219.008368        553.014174
 Total kinetic energy from orbitals= 4.601254378244D+02
  Exact polarizability:   8.148   0.000   8.148   0.000   0.000  12.819
 Approx polarizability:   6.476   0.000   6.476   0.000   0.000  11.244
 No NMR shielding tensors so no spin-rotation constants.
 Leave Link  601 at Wed Sep 03 20:42:28 2025, MaxMem=   536870912 cpu:               0.0 elap:               0.0
 (Enter C:\G16W\l701.exe)
 ... and contract with generalized density number  0.
 Compute integral second derivatives.
 Leave Link  701 at Wed Sep 03 20:42:28 2025, MaxMem=   536870912 cpu:               0.0 elap:               0.0
 (Enter C:\G16W\l702.exe)
 L702 exits ... SP integral derivatives will be done elsewhere.
 Leave Link  702 at Wed Sep 03 20:42:28 2025, MaxMem=   536870912 cpu:               0.0 elap:               0.0
 (Enter C:\G16W\l703.exe)
 Integral derivatives from FoFJK, PRISM(SPDF).
 Compute integral second derivatives, UseDBF=F ICtDFT=           0.
 Calling FoFJK, ICntrl=    100127 FMM=F ISym2X=1 I1Cent= 0 IOpClX= 0 NMat=1 NMatS=1 NMatT=0.
 FoFJK:  IHMeth= 1 ICntrl=  100127 DoSepK=F KAlg= 0 I1Cent=           0 FoldK=F
 IRaf=         0 NMat=       1 IRICut=       1 DoRegI=T DoRafI=F ISym2E= 1 IDoP0=0 IntGTp=1.
 FoFCou: FMM=F IPFlag=           0 FMFlag=      100000 FMFlg1=         800
         NFxFlg=           0 DoJE=F BraDBF=F KetDBF=F FulRan=T
         wScrn=  0.000000 ICntrl=    100127 IOpCl=  0 I1Cent=           0 NGrid=           0
         NMat0=    1 NMatS0=      1 NMatT0=    0 NMatD0=    1 NMtDS0=    0 NMtDT0=    0
 Petite list used in FoFCou.
 Leave Link  703 at Wed Sep 03 20:42:28 2025, MaxMem=   536870912 cpu:               0.0 elap:               0.1
 (Enter C:\G16W\l716.exe)
 Dipole        = 0.00000000D+00 0.00000000D+00-5.99894325D-01
 Polarizability= 8.14843227D+00 0.00000000D+00 8.14843227D+00
                 0.00000000D+00 0.00000000D+00 1.28190056D+01
 HyperPolar    = 0.00000000D+00 0.00000000D+00 0.00000000D+00
                 0.00000000D+00 3.25707451D+00 0.00000000D+00
                 3.25707451D+00 0.00000000D+00 0.00000000D+00
                -2.90899876D+01
 Full mass-weighted force constant matrix:
 Low frequencies ---   -0.4120   -0.4120   -0.0013    0.0038    0.0038 3106.6258
 Diagonal vibrational polarizability:
        0.0000000       0.0000000       0.0745685
 Diagonal vibrational hyperpolarizability:
        0.0000000       0.0000000      -5.2292532
 Harmonic frequencies (cm**-1), IR intensities (KM/Mole), Raman scattering
 activities (A**4/AMU), depolarization ratios for plane and unpolarized
 incident light, reduced masses (AMU), force constants (mDyne/A),
 and normal coordinates:
                      1
                     SG
 Frequencies --   3106.6258
 Red. masses --      1.0360
 Frc consts  --      5.8910
 IR Inten    --     26.7424
 Raman Activ --    125.8147
 Depolar (P) --      0.3553
 Depolar (U) --      0.5243
  Atom  AN      X      Y      Z
     1  17     0.00   0.00  -0.03
     2   1     0.00   0.00   1.00

 -------------------
 - Thermochemistry -
 -------------------
 Temperature   298.150 Kelvin.  Pressure   1.00000 Atm.
 Atom     1 has atomic number 17 and mass  34.96885
 Atom     2 has atomic number  1 and mass   1.00783
 Molecular mass:    35.97668 amu.
 Principal axes and moments of inertia in atomic units:
                           1         2         3
     Eigenvalues --     0.00000   5.65508   5.65508
           X            0.00000   0.00000   1.00000
           Y            0.00000   1.00000   0.00000
           Z            1.00000   0.00000   0.00000
 This molecule is a prolate symmetric top.
 Rotational symmetry number  1.
 Rotational temperature (Kelvin)     15.31612
 Rotational constant (GHZ):         319.136041
 Zero-point vibrational energy      18581.7 (Joules/Mol)
                                    4.44114 (Kcal/Mol)
 Vibrational temperatures:   4469.74
          (Kelvin)
 
 Zero-point correction=                           0.007077 (Hartree/Particle)
 Thermal correction to Energy=                    0.009438
 Thermal correction to Enthalpy=                  0.010382
 Thermal correction to Gibbs Free Energy=        -0.010789
 Sum of electronic and zero-point Energies=           -460.080093
 Sum of electronic and thermal Energies=              -460.077732
 Sum of electronic and thermal Enthalpies=            -460.076788
 Sum of electronic and thermal Free Energies=         -460.097959
 
                     E (Thermal)             CV                S
                      KCal/Mol        Cal/Mol-Kelvin    Cal/Mol-Kelvin
 Total                    5.922              4.968             44.557
 Electronic               0.000              0.000              0.000
 Translational            0.889              2.981             36.671
 Rotational               0.592              1.987              7.887
 Vibrational              4.441              0.000              0.000
                       Q            Log10(Q)             Ln(Q)
 Total Bot       0.917044D+05          4.962390         11.426325
 Total V=0       0.165109D+09          8.217772         18.922119
 Vib (Bot)       0.555416D-03         -3.255382         -7.495793
 Vib (V=0)       0.100000D+01          0.000000          0.000000
 Electronic      0.100000D+01          0.000000          0.000000
 Translational   0.848175D+07          6.928485         15.953427
 Rotational      0.194664D+02          1.289286          2.968691
 ***** Axes restored to original set *****
 -------------------------------------------------------------------
 Center     Atomic                   Forces (Hartrees/Bohr)
 Number     Number              X              Y              Z
 -------------------------------------------------------------------
      1       17           0.000000000    0.000000000   -0.000000001
      2        1           0.000000000    0.000000000    0.000000001
 -------------------------------------------------------------------
 Cartesian Forces:  Max     0.000000001 RMS     0.000000001
 Force constants in Cartesian coordinates: 
                1             2             3             4             5 
      1  0.000000D+00
      2  0.000000D+00  0.000000D+00
      3  0.000000D+00  0.000000D+00  0.357779D+00
      4  0.000000D+00  0.000000D+00  0.000000D+00  0.000000D+00
      5  0.000000D+00  0.000000D+00  0.000000D+00  0.000000D+00  0.000000D+00
      6  0.000000D+00  0.000000D+00 -0.357779D+00  0.000000D+00  0.000000D+00
                6 
      6  0.357779D+00
 FormGI is forming the generalized inverse of G from B-inverse, IUseBI=4.
 Force constants in internal coordinates: 
                1 
      1  0.357779D+00
 Leave Link  716 at Wed Sep 03 20:42:29 2025, MaxMem=   536870912 cpu:               0.0 elap:               0.0
 (Enter C:\G16W\l103.exe)

 GradGradGradGradGradGradGradGradGradGradGradGradGradGradGradGradGradGrad
 Berny optimization.
 Red2BG is reusing G-inverse.
 Internal  Forces:  Max     0.000000001 RMS     0.000000001
 Search for a local minimum.
 Step number   1 out of a maximum of    2
 All quantities printed in internal units (Hartrees-Bohrs-Radians)
 Second derivative matrix not updated -- analytic derivatives used.
 The second derivative matrix:
                          R1
           R1           0.35778
 ITU=  0
     Eigenvalues ---    0.35778
 Angle between quadratic step and forces=  90.00 degrees.
 Linear search not attempted -- first point.
 Iteration  1 RMS(Cart)=  0.00000000 RMS(Int)=  0.00000000
 ITry= 1 IFail=0 DXMaxC= 1.96D-09 DCOld= 1.00D+10 DXMaxT= 3.00D-01 DXLimC= 3.00D+00 Rises=F
 ClnCor:  largest displacement from symmetrization is 0.00D+00 for atom     0.
 Variable       Old X    -DE/DX   Delta X   Delta X   Delta X     New X
                                 (Linear)    (Quad)   (Total)
    R1        2.40268   0.00000   0.00000   0.00000   0.00000   2.40268
         Item               Value     Threshold  Converged?
 Maximum Force            0.000000     0.000015     YES
 RMS     Force            0.000000     0.000010     YES
 Maximum Displacement     0.000000     0.000060     YES
 RMS     Displacement     0.000000     0.000040     YES
 Predicted change in Energy=-2.738540D-18
 Optimization completed.
    -- Stationary point found.
                           ----------------------------
                           !   Optimized Parameters   !
                           ! (Angstroms and Degrees)  !
 --------------------------                            --------------------------
 ! Name  Definition              Value          Derivative Info.                !
 --------------------------------------------------------------------------------
 ! R1    R(1,2)                  1.2714         -DE/DX =    0.0                 !
 --------------------------------------------------------------------------------
 GradGradGradGradGradGradGradGradGradGradGradGradGradGradGradGradGradGrad

 Leave Link  103 at Wed Sep 03 20:42:29 2025, MaxMem=   536870912 cpu:               0.0 elap:               0.0
 (Enter C:\G16W\l9999.exe)

 ----------------------------------------------------------------------

 Electric dipole moment (input orientation):
 (Debye = 10**-18 statcoulomb cm , SI units = C m)
                  (au)            (Debye)         (10**-30 SI)
   Tot        0.599894D+00      0.152478D+01      0.508612D+01
   x          0.000000D+00      0.000000D+00      0.000000D+00
   y          0.000000D+00      0.000000D+00      0.000000D+00
   z          0.599894D+00      0.152478D+01      0.508612D+01

 Dipole polarizability, Alpha (input orientation).
 (esu units = cm**3 , SI units = C**2 m**2 J**-1)
 Alpha(0;0):
               (au)            (10**-24 esu)      (10**-40 SI)
   iso        0.970529D+01      0.143818D+01      0.160019D+01
   aniso      0.467057D+01      0.692108D+00      0.770074D+00
   xx         0.814843D+01      0.120747D+01      0.134349D+01
   yx         0.000000D+00      0.000000D+00      0.000000D+00
   yy         0.814843D+01      0.120747D+01      0.134349D+01
   zx         0.000000D+00      0.000000D+00      0.000000D+00
   zy         0.000000D+00      0.000000D+00      0.000000D+00
   zz         0.128190D+02      0.189958D+01      0.211357D+01

 First dipole hyperpolarizability, Beta (input orientation).
 ||, _|_  parallel and perpendicular components, (z) with respect to z axis,
 vector components x,y,z.  Values do not include the 1/n! factor of 1/2.
 (esu units = statvolt**-1 cm**4 , SI units = C**3 m**3 J**-2)
 Beta(0;0,0):
               (au)            (10**-30 esu)      (10**-50 SI)
   || (z)     0.135455D+02      0.117023D+00      0.434318D-01
   _|_(z)     0.451517D+01      0.390075D-01      0.144773D-01
   x          0.000000D+00      0.000000D+00      0.000000D+00
   y          0.000000D+00      0.000000D+00      0.000000D+00
   z          0.677275D+02      0.585113D+00      0.217159D+00
   ||         0.135455D+02      0.117023D+00      0.434318D-01
   xxx        0.000000D+00      0.000000D+00      0.000000D+00
   xxy        0.000000D+00      0.000000D+00      0.000000D+00
   yxy        0.000000D+00      0.000000D+00      0.000000D+00
   yyy        0.000000D+00      0.000000D+00      0.000000D+00
   xxz       -0.325707D+01     -0.281386D-01     -0.104434D-01
   yxz        0.000000D+00      0.000000D+00      0.000000D+00
   yyz       -0.325707D+01     -0.281386D-01     -0.104434D-01
   zxz        0.000000D+00      0.000000D+00      0.000000D+00
   zyz        0.000000D+00      0.000000D+00      0.000000D+00
   zzz        0.290900D+02      0.251315D+00      0.932730D-01

 ----------------------------------------------------------------------

 Dipole orientation:
    17          0.00000000          0.00000000          0.00335799
     1          0.00000000          0.00000000          2.40604282

 Electric dipole moment (dipole orientation):
 (Debye = 10**-18 statcoulomb cm , SI units = C m)
                  (au)            (Debye)         (10**-30 SI)
   Tot        0.599894D+00      0.152478D+01      0.508612D+01
   x          0.000000D+00      0.000000D+00      0.000000D+00
   y          0.000000D+00      0.000000D+00      0.000000D+00
   z          0.599894D+00      0.152478D+01      0.508612D+01

 Dipole polarizability, Alpha (dipole orientation).
 (esu units = cm**3 , SI units = C**2 m**2 J**-1)
 Alpha(0;0):
               (au)            (10**-24 esu)      (10**-40 SI)
   iso        0.970529D+01      0.143818D+01      0.160019D+01
   aniso      0.467057D+01      0.692108D+00      0.770074D+00
   xx         0.814843D+01      0.120747D+01      0.134349D+01
   yx         0.000000D+00      0.000000D+00      0.000000D+00
   yy         0.814843D+01      0.120747D+01      0.134349D+01
   zx         0.000000D+00      0.000000D+00      0.000000D+00
   zy         0.000000D+00      0.000000D+00      0.000000D+00
   zz         0.128190D+02      0.189958D+01      0.211357D+01

 First dipole hyperpolarizability, Beta (dipole orientation).
 ||, _|_  parallel and perpendicular components, (z) with respect to z axis,
 vector components x,y,z.  Values do not include the 1/n! factor of 1/2.
 (esu units = statvolt**-1 cm**4 , SI units = C**3 m**3 J**-2)
 Beta(0;0,0):
               (au)            (10**-30 esu)      (10**-50 SI)
   || (z)     0.135455D+02      0.117023D+00      0.434318D-01
   _|_(z)     0.451517D+01      0.390075D-01      0.144773D-01
   x          0.000000D+00      0.000000D+00      0.000000D+00
   y          0.000000D+00      0.000000D+00      0.000000D+00
   z          0.677275D+02      0.585113D+00      0.217159D+00
   ||         0.135455D+02      0.117023D+00      0.434318D-01
   xxx        0.000000D+00      0.000000D+00      0.000000D+00
   xxy        0.000000D+00      0.000000D+00      0.000000D+00
   yxy        0.000000D+00      0.000000D+00      0.000000D+00
   yyy        0.000000D+00      0.000000D+00      0.000000D+00
   xxz       -0.325707D+01     -0.281386D-01     -0.104434D-01
   yxz        0.000000D+00      0.000000D+00      0.000000D+00
   yyz       -0.325707D+01     -0.281386D-01     -0.104434D-01
   zxz        0.000000D+00      0.000000D+00      0.000000D+00
   zyz        0.000000D+00      0.000000D+00      0.000000D+00
   zzz        0.290900D+02      0.251315D+00      0.932730D-01

 ----------------------------------------------------------------------
 1|1|UNPC-DESKTOP-SI45VP7|Freq|RHF|6-311+G(d)|Cl1H1|DOG OF ROMAN|03-Sep
 -2025|0||#P Geom=AllCheck Guess=TCheck SCRF=Check GenChk RHF/6-311+G(d
 ) Freq||Calculation of the ground state energy with STO-3G basis set||
 0,1|Cl,0.,0.,0.0017769738|H,0.,0.,1.2732230262||Version=EM64W-G16RevB.
 01|State=1-SG|HF=-460.0871703|RMSD=1.277e-009|RMSF=8.082e-010|ZeroPoin
 t=0.0070774|Thermal=0.0094379|Dipole=0.,0.,0.5998943|DipoleDeriv=-0.24
 96768,0.,0.,0.,-0.2496768,0.,0.,0.,-0.1639258,0.2496768,0.,0.,0.,0.249
 6768,0.,0.,0.,0.1639258|Polar=8.1484323,0.,8.1484323,0.,0.,12.8190056|
 PolarDeriv=0.,0.,0.,-1.9438984,0.,0.,0.,0.,0.,0.,-1.9438984,0.,0.22363
 88,0.,0.2236388,0.,0.,-11.4955949,0.,0.,0.,1.9438984,0.,0.,0.,0.,0.,0.
 ,1.9438984,0.,-0.2236388,0.,-0.2236388,0.,0.,11.4955949|HyperPolar=0.,
 0.,0.,0.,-3.2570745,0.,-3.2570745,0.,0.,29.0899876|Quadrupole=-0.94105
 65,-0.9410565,1.8821131,0.,0.,0.|PG=C*V [C*(H1Cl1)]|NImag=0||0.,0.,0.,
 0.,0.,0.35777896,0.,0.,0.,0.,0.,0.,0.,0.,0.,0.,0.,-0.35777896,0.,0.,0.
 35777896||0.,0.,0.,0.,0.,0.|||@


 NOTHING PUZZLES ME MORE THAN TIME AND SPACE; AND YET NOTHING TROUBLES ME LESS
                                                          -- CHARLES LAMB (1810)
 Job cpu time:       0 days  0 hours  0 minutes  2.0 seconds.
 Elapsed time:       0 days  0 hours  0 minutes  0.9 seconds.
 File lengths (MBytes):  RWF=      6 Int=      0 D2E=      0 Chk=      2 Scr=      1
 Normal termination of Gaussian 16 at Wed Sep 03 20:42:29 2025.
