 Entering Link 1 = C:\G16W\l1.exe PID=      3924.
  
 Copyright (c) 1988-2017, Gaussian, Inc.  All Rights Reserved.
  
 This is part of the Gaussian(R) 16 program.  It is based on
 the Gaussian(R) 09 system (copyright 2009, Gaussian, Inc.),
 the Gaussian(R) 03 system (copyright 2003, Gaussian, Inc.),
 the Gaussian(R) 98 system (copyright 1998, Gaussian, Inc.),
 the Gaussian(R) 94 system (copyright 1995, Gaussian, Inc.),
 the Gaussian 92(TM) system (copyright 1992, Gaussian, Inc.),
 the Gaussian 90(TM) system (copyright 1990, Gaussian, Inc.),
 the Gaussian 88(TM) system (copyright 1988, Gaussian, Inc.),
 the Gaussian 86(TM) system (copyright 1986, Carnegie Mellon
 University), and the Gaussian 82(TM) system (copyright 1983,
 Carnegie Mellon University). Gaussian is a federally registered
 trademark of Gaussian, Inc.
  
 This software contains proprietary and confidential information,
 including trade secrets, belonging to Gaussian, Inc.
  
 This software is provided under written license and may be
 used, copied, transmitted, or stored only in accord with that
 written license.
  
 The following legend is applicable only to US Government
 contracts under FAR:
  
                    RESTRICTED RIGHTS LEGEND
  
 Use, reproduction and disclosure by the US Government is
 subject to restrictions as set forth in subparagraphs (a)
 and (c) of the Commercial Computer Software - Restricted
 Rights clause in FAR 52.227-19.
  
 Gaussian, Inc.
 340 Quinnipiac St., Bldg. 40, Wallingford CT 06492
  
  
 ---------------------------------------------------------------
 Warning -- This program may not be used in any manner that
 competes with the business of Gaussian, Inc. or will provide
 assistance to any competitor of Gaussian, Inc.  The licensee
 of this program is prohibited from giving any competitor of
 Gaussian, Inc. access to this program.  By using this program,
 the user acknowledges that Gaussian, Inc. is engaged in the
 business of creating and licensing software in the field of
 computational chemistry and represents and warrants to the
 licensee that it is not a competitor of Gaussian, Inc. and that
 it will not use this program in any manner prohibited above.
 ---------------------------------------------------------------
  

 Cite this work as:
 Gaussian 16, Revision B.01,
 M. J. Frisch, G. W. Trucks, H. B. Schlegel, G. E. Scuseria, 
 M. A. Robb, J. R. Cheeseman, G. Scalmani, V. Barone, 
 G. A. Petersson, H. Nakatsuji, X. Li, M. Caricato, A. V. Marenich, 
 J. Bloino, B. G. Janesko, R. Gomperts, B. Mennucci, H. P. Hratchian, 
 J. V. Ortiz, A. F. Izmaylov, J. L. Sonnenberg, D. Williams-Young, 
 F. Ding, F. Lipparini, F. Egidi, J. Goings, B. Peng, A. Petrone, 
 T. Henderson, D. Ranasinghe, V. G. Zakrzewski, J. Gao, N. Rega, 
 G. Zheng, W. Liang, M. Hada, M. Ehara, K. Toyota, R. Fukuda, 
 J. Hasegawa, M. Ishida, T. Nakajima, Y. Honda, O. Kitao, H. Nakai, 
 T. Vreven, K. Throssell, J. A. Montgomery, Jr., J. E. Peralta, 
 F. Ogliaro, M. J. Bearpark, J. J. Heyd, E. N. Brothers, K. N. Kudin, 
 V. N. Staroverov, T. A. Keith, R. Kobayashi, J. Normand, 
 K. Raghavachari, A. P. Rendell, J. C. Burant, S. S. Iyengar, 
 J. Tomasi, M. Cossi, J. M. Millam, M. Klene, C. Adamo, R. Cammi, 
 J. W. Ochterski, R. L. Martin, K. Morokuma, O. Farkas, 
 J. B. Foresman, and D. J. Fox, Gaussian, Inc., Wallingford CT, 2016.
 
 ******************************************
 Gaussian 16:  EM64W-G16RevB.01 16-Dec-2017
                05-Sep-2025 
 ******************************************
 %chk=HCl.chk
 %mem=4GB
 %nproc=1
 Will use up to    1 processors via shared memory.
 -------------------------------------------------------
 #p hf/sto-3g opt=(tight,calcfc) freq scf=tight pop=full
 -------------------------------------------------------
 1/7=10,10=4,18=20,19=15,38=1/1,3;
 2/9=110,12=2,17=6,18=5,40=1/2;
 3/6=3,11=9,25=1,30=1,71=2,140=1/1,2,3;
 4//1;
 5/5=2,32=2,38=5/2;
 8/6=4,10=90,11=11/1;
 11/6=1,8=1,9=11,15=111,16=1/1,2,10;
 10/6=1,13=1/2;
 6/7=3,28=1/1;
 7/10=1,18=20,25=1/1,2,3,16;
 1/7=10,10=4,18=20,19=15/3(2);
 2/9=110/2;
 99//99;
 2/9=110/2;
 3/6=3,11=9,25=1,30=1,71=1/1,2,3;
 4/5=5,16=3,69=1/1;
 5/5=2,32=2,38=5/2;
 7//1,2,3,16;
 1/7=10,18=20,19=15/3(-5);
 2/9=110/2;
 6/7=3,19=2,28=1/1;
 99/9=1/99;
 Leave Link    1 at Fri Sep 05 16:45:35 2025, MaxMem=   536870912 cpu:               0.0 elap:               0.0
 (Enter C:\G16W\l101.exe)
 ------------------------------------------------------------
 Calculation of the ground state energy with STO-3G basis set
 ------------------------------------------------------------
 Symbolic Z-matrix:
 Charge =  0 Multiplicity = 1
 Cl
 H                    1    B1
       Variables:
  B1                    1.275                    
 
 ITRead=  0  0
 MicOpt= -1 -1
 NAtoms=      2 NQM=        2 NQMF=       0 NMMI=      0 NMMIF=      0
                NMic=       0 NMicF=      0.
                    Isotopes and Nuclear Properties:
 (Nuclear quadrupole moments (NQMom) in fm**2, nuclear magnetic moments (NMagM)
  in nuclear magnetons)

  Atom         1           2
 IAtWgt=          35           1
 AtmWgt=  34.9688527   1.0078250
 NucSpn=           3           1
 AtZEff=   0.0000000   0.0000000
 NQMom=   -8.1650000   0.0000000
 NMagM=    0.8218740   2.7928460
 AtZNuc=  17.0000000   1.0000000
 Leave Link  101 at Fri Sep 05 16:45:36 2025, MaxMem=   536870912 cpu:               0.0 elap:               0.1
 (Enter C:\G16W\l103.exe)

 GradGradGradGradGradGradGradGradGradGradGradGradGradGradGradGradGradGrad
 Berny optimization.
 Initialization pass.
                           ----------------------------
                           !    Initial Parameters    !
                           ! (Angstroms and Degrees)  !
 --------------------------                            --------------------------
 ! Name  Definition              Value          Derivative Info.                !
 --------------------------------------------------------------------------------
 ! R1    R(1,2)                  1.275          calculate D2E/DX2 analytically  !
 --------------------------------------------------------------------------------
 Trust Radius=3.00D-01 FncErr=1.00D-07 GrdErr=1.00D-07 EigMax=2.50D+02 EigMin=1.00D-04
 Number of steps in this run=     20 maximum allowed number of steps=    100.
 GradGradGradGradGradGradGradGradGradGradGradGradGradGradGradGradGradGrad

 Leave Link  103 at Fri Sep 05 16:45:36 2025, MaxMem=   536870912 cpu:               0.0 elap:               0.0
 (Enter C:\G16W\l202.exe)
                          Input orientation:                          
 ---------------------------------------------------------------------
 Center     Atomic      Atomic             Coordinates (Angstroms)
 Number     Number       Type             X           Y           Z
 ---------------------------------------------------------------------
      1         17           0        0.000000    0.000000    0.000000
      2          1           0        0.000000    0.000000    1.275000
 ---------------------------------------------------------------------
 Stoichiometry    ClH
 Framework group  C*V[C*(HCl)]
 Deg. of freedom     1
 Full point group                 C*V     NOp   4
 Largest Abelian subgroup         C2V     NOp   4
 Largest concise Abelian subgroup C1      NOp   1
                         Standard orientation:                         
 ---------------------------------------------------------------------
 Center     Atomic      Atomic             Coordinates (Angstroms)
 Number     Number       Type             X           Y           Z
 ---------------------------------------------------------------------
      1         17           0        0.000000    0.000000    0.070833
      2          1           0        0.000000    0.000000   -1.204167
 ---------------------------------------------------------------------
 Rotational constants (GHZ):           0.0000000         317.3593948         317.3593948
 Leave Link  202 at Fri Sep 05 16:45:36 2025, MaxMem=   536870912 cpu:               0.0 elap:               0.0
 (Enter C:\G16W\l301.exe)
 Standard basis: STO-3G (5D, 7F)
 Ernie: Thresh=  0.10000D-02 Tol=  0.10000D-05 Strict=F.
 There are     6 symmetry adapted cartesian basis functions of A1  symmetry.
 There are     0 symmetry adapted cartesian basis functions of A2  symmetry.
 There are     2 symmetry adapted cartesian basis functions of B1  symmetry.
 There are     2 symmetry adapted cartesian basis functions of B2  symmetry.
 There are     6 symmetry adapted basis functions of A1  symmetry.
 There are     0 symmetry adapted basis functions of A2  symmetry.
 There are     2 symmetry adapted basis functions of B1  symmetry.
 There are     2 symmetry adapted basis functions of B2  symmetry.
    10 basis functions,    30 primitive gaussians,    10 cartesian basis functions
     9 alpha electrons        9 beta electrons
       nuclear repulsion energy         7.0556961456 Hartrees.
 IExCor=    0 DFT=F Ex=HF Corr=None ExCW=0 ScaHFX=  1.000000
 ScaDFX=  1.000000  1.000000  1.000000  1.000000 ScalE2=  1.000000  1.000000
 IRadAn=      5 IRanWt=     -1 IRanGd=            0 ICorTp=0 IEmpDi=  4
 NAtoms=    2 NActive=    2 NUniq=    2 SFac= 1.00D+00 NAtFMM=   60 NAOKFM=F Big=F
 Integral buffers will be    131072 words long.
 Raffenetti 1 integral format.
 Two-electron integral symmetry is turned on.
 Leave Link  301 at Fri Sep 05 16:45:36 2025, MaxMem=   536870912 cpu:               0.0 elap:               0.0
 (Enter C:\G16W\l302.exe)
 NPDir=0 NMtPBC=     1 NCelOv=     1 NCel=       1 NClECP=     1 NCelD=      1
         NCelK=      1 NCelE2=     1 NClLst=     1 CellRange=     0.0.
 One-electron integrals computed using PRISM.
 One-electron integral symmetry used in STVInt
 NBasis=    10 RedAO= T EigKep=  3.57D-01  NBF=     6     0     2     2
 NBsUse=    10 1.00D-06 EigRej= -1.00D+00 NBFU=     6     0     2     2
 Leave Link  302 at Fri Sep 05 16:45:36 2025, MaxMem=   536870912 cpu:               0.0 elap:               0.0
 (Enter C:\G16W\l303.exe)
 DipDrv:  MaxL=1.
 Leave Link  303 at Fri Sep 05 16:45:36 2025, MaxMem=   536870912 cpu:               0.0 elap:               0.0
 (Enter C:\G16W\l401.exe)
 ExpMin= 1.69D-01 ExpMax= 6.01D+02 ExpMxC= 6.01D+02 IAcc=3 IRadAn=         5 AccDes= 0.00D+00
 Harris functional with IExCor=  205 and IRadAn=       5 diagonalized for initial guess.
 HarFok:  IExCor=  205 AccDes= 0.00D+00 IRadAn=         5 IDoV= 1 UseB2=F ITyADJ=14
 ICtDFT=  3500011 ScaDFX=  1.000000  1.000000  1.000000  1.000000
 FoFCou: FMM=F IPFlag=           0 FMFlag=      100000 FMFlg1=           0
         NFxFlg=           0 DoJE=T BraDBF=F KetDBF=T FulRan=T
         wScrn=  0.000000 ICntrl=       500 IOpCl=  0 I1Cent=   200000004 NGrid=           0
         NMat0=    1 NMatS0=      1 NMatT0=    0 NMatD0=    1 NMtDS0=    0 NMtDT0=    0
 Petite list used in FoFCou.
 Harris En= -454.571499625110    
 JPrj=0 DoOrth=F DoCkMO=F.
 Initial guess orbital symmetries:
       Occupied  (SG) (SG) (SG) (PI) (PI) (SG) (SG) (PI) (PI)
       Virtual   (SG)
 The electronic state of the initial guess is 1-SG.
 Leave Link  401 at Fri Sep 05 16:45:37 2025, MaxMem=   536870912 cpu:               0.0 elap:               0.0
 (Enter C:\G16W\l502.exe)
 Keep R1 ints in memory in symmetry-blocked form, NReq=804496.
 FoFCou: FMM=F IPFlag=           0 FMFlag=           0 FMFlg1=           0
         NFxFlg=           0 DoJE=F BraDBF=F KetDBF=F FulRan=T
         wScrn=  0.000000 ICntrl=       600 IOpCl=  0 I1Cent=           0 NGrid=           0
         NMat0=    1 NMatS0=     55 NMatT0=    0 NMatD0=    1 NMtDS0=    0 NMtDT0=    0
 Petite list used in FoFCou.
 Closed shell SCF:
 Using DIIS extrapolation, IDIIS=  1040.
 NGot=   536870912 LenX=   536868482 LenY=   536867600
 Requested convergence on RMS density matrix=1.00D-08 within 128 cycles.
 Requested convergence on MAX density matrix=1.00D-06.
 Requested convergence on             energy=1.00D-06.
 No special actions if energy rises.

 Cycle   1  Pass 1  IDiag  1:
 E= -455.129112625925    
 DIIS: error= 2.68D-02 at cycle   1 NSaved=   1.
 NSaved= 1 IEnMin= 1 EnMin= -455.129112625925     IErMin= 1 ErrMin= 2.68D-02
 ErrMax= 2.68D-02  0.00D+00 EMaxC= 1.00D-01 BMatC= 7.72D-03 BMatP= 7.72D-03
 IDIUse=3 WtCom= 7.32D-01 WtEn= 2.68D-01
 Coeff-Com:  0.100D+01
 Coeff-En:   0.100D+01
 Coeff:      0.100D+01
 Gap=     0.801 Goal=   None    Shift=    0.000
 GapD=    0.801 DampG=2.000 DampE=0.500 DampFc=1.0000 IDamp=-1.
 RMSDP=9.39D-03 MaxDP=6.17D-02              OVMax= 0.00D+00

 Cycle   2  Pass 1  IDiag  1:
 E= -455.134789644881     Delta-E=       -0.005677018956 Rises=F Damp=F
 DIIS: error= 2.56D-03 at cycle   2 NSaved=   2.
 NSaved= 2 IEnMin= 2 EnMin= -455.134789644881     IErMin= 2 ErrMin= 2.56D-03
 ErrMax= 2.56D-03  0.00D+00 EMaxC= 1.00D-01 BMatC= 4.27D-05 BMatP= 7.72D-03
 IDIUse=3 WtCom= 9.74D-01 WtEn= 2.56D-02
 Coeff-Com: -0.759D-01 0.108D+01
 Coeff-En:   0.000D+00 0.100D+01
 Coeff:     -0.740D-01 0.107D+01
 Gap=     0.827 Goal=   None    Shift=    0.000
 RMSDP=9.04D-04 MaxDP=5.94D-03 DE=-5.68D-03 OVMax= 0.00D+00

 Cycle   3  Pass 1  IDiag  1:
 E= -455.134835093815     Delta-E=       -0.000045448934 Rises=F Damp=F
 DIIS: error= 8.17D-05 at cycle   3 NSaved=   3.
 NSaved= 3 IEnMin= 3 EnMin= -455.134835093815     IErMin= 3 ErrMin= 8.17D-05
 ErrMax= 8.17D-05  0.00D+00 EMaxC= 1.00D-01 BMatC= 3.75D-08 BMatP= 4.27D-05
 IDIUse=1 WtCom= 1.00D+00 WtEn= 0.00D+00
 Coeff-Com:  0.355D-02-0.623D-01 0.106D+01
 Coeff:      0.355D-02-0.623D-01 0.106D+01
 Gap=     0.827 Goal=   None    Shift=    0.000
 RMSDP=3.08D-05 MaxDP=1.27D-04 DE=-4.54D-05 OVMax= 0.00D+00

 Cycle   4  Pass 1  IDiag  1:
 E= -455.134835157020     Delta-E=       -0.000000063205 Rises=F Damp=F
 DIIS: error= 7.62D-06 at cycle   4 NSaved=   4.
 NSaved= 4 IEnMin= 4 EnMin= -455.134835157020     IErMin= 4 ErrMin= 7.62D-06
 ErrMax= 7.62D-06  0.00D+00 EMaxC= 1.00D-01 BMatC= 6.73D-10 BMatP= 3.75D-08
 IDIUse=1 WtCom= 1.00D+00 WtEn= 0.00D+00
 Coeff-Com: -0.249D-03 0.565D-02-0.200D+00 0.119D+01
 Coeff:     -0.249D-03 0.565D-02-0.200D+00 0.119D+01
 Gap=     0.827 Goal=   None    Shift=    0.000
 RMSDP=5.65D-06 MaxDP=2.57D-05 DE=-6.32D-08 OVMax= 0.00D+00

 Cycle   5  Pass 1  IDiag  1:
 E= -455.134835158205     Delta-E=       -0.000000001185 Rises=F Damp=F
 DIIS: error= 2.85D-07 at cycle   5 NSaved=   5.
 NSaved= 5 IEnMin= 5 EnMin= -455.134835158205     IErMin= 5 ErrMin= 2.85D-07
 ErrMax= 2.85D-07  0.00D+00 EMaxC= 1.00D-01 BMatC= 6.35D-13 BMatP= 6.73D-10
 IDIUse=1 WtCom= 1.00D+00 WtEn= 0.00D+00
 Coeff-Com:  0.824D-05-0.241D-03 0.132D-01-0.101D+00 0.109D+01
 Coeff:      0.824D-05-0.241D-03 0.132D-01-0.101D+00 0.109D+01
 Gap=     0.827 Goal=   None    Shift=    0.000
 RMSDP=2.05D-07 MaxDP=9.47D-07 DE=-1.18D-09 OVMax= 0.00D+00

 Cycle   6  Pass 1  IDiag  1:
 E= -455.134835158206     Delta-E=       -0.000000000001 Rises=F Damp=F
 DIIS: error= 1.05D-09 at cycle   6 NSaved=   6.
 NSaved= 6 IEnMin= 6 EnMin= -455.134835158206     IErMin= 6 ErrMin= 1.05D-09
 ErrMax= 1.05D-09  0.00D+00 EMaxC= 1.00D-01 BMatC= 1.02D-17 BMatP= 6.35D-13
 IDIUse=1 WtCom= 1.00D+00 WtEn= 0.00D+00
 Coeff-Com: -0.366D-06 0.109D-04-0.617D-03 0.471D-02-0.489D-01 0.104D+01
 Coeff:     -0.366D-06 0.109D-04-0.617D-03 0.471D-02-0.489D-01 0.104D+01
 Gap=     0.827 Goal=   None    Shift=    0.000
 RMSDP=6.55D-10 MaxDP=3.82D-09 DE=-1.48D-12 OVMax= 0.00D+00

 SCF Done:  E(RHF) =  -455.134835158     A.U. after    6 cycles
            NFock=  6  Conv=0.66D-09     -V/T= 2.0180
 KE= 4.470880096950D+02 PE=-1.091240818888D+03 EE= 1.819622778893D+02
 Leave Link  502 at Fri Sep 05 16:45:37 2025, MaxMem=   536870912 cpu:               0.0 elap:               0.1
 (Enter C:\G16W\l801.exe)
 Range of M.O.s used for correlation:     1    10
 NBasis=    10 NAE=     9 NBE=     9 NFC=     0 NFV=     0
 NROrb=     10 NOA=     9 NOB=     9 NVA=     1 NVB=     1
 Leave Link  801 at Fri Sep 05 16:45:37 2025, MaxMem=   536870912 cpu:               0.0 elap:               0.0
 (Enter C:\G16W\l1101.exe)
 Using compressed storage, NAtomX=     2.
 Will process      3 centers per pass.
 Leave Link 1101 at Fri Sep 05 16:45:37 2025, MaxMem=   536870912 cpu:               0.0 elap:               0.0
 (Enter C:\G16W\l1102.exe)
 Symmetrizing basis deriv contribution to polar:
 IMax=3 JMax=2 DiffMx= 0.00D+00
 Leave Link 1102 at Fri Sep 05 16:45:37 2025, MaxMem=   536870912 cpu:               0.0 elap:               0.0
 (Enter C:\G16W\l1110.exe)
 Forming Gx(P) for the SCF density, NAtomX=     2.
 Integral derivatives from FoFJK, PRISM(SPDF).
 Do as many integral derivatives as possible in FoFJK.
 G2DrvN: MDV=     536870628.
 G2DrvN: will do     3 centers at a time, making    1 passes.
 Calling FoFCou, ICntrl=  3107 FMM=F I1Cent=   0 AccDes= 0.00D+00.
 FoFJK:  IHMeth= 1 ICntrl=    3107 DoSepK=F KAlg= 0 I1Cent=           0 FoldK=F
 IRaf=         0 NMat=       1 IRICut=       1 DoRegI=T DoRafI=F ISym2E= 1 IDoP0=0 IntGTp=1.
 FoFCou: FMM=F IPFlag=           0 FMFlag=      100000 FMFlg1=           0
         NFxFlg=           0 DoJE=F BraDBF=F KetDBF=F FulRan=T
         wScrn=  0.000000 ICntrl=      3107 IOpCl=  0 I1Cent=           0 NGrid=           0
         NMat0=    1 NMatS0=      1 NMatT0=    0 NMatD0=    1 NMtDS0=    0 NMtDT0=    0
 Petite list used in FoFCou.
 End of G2Drv F.D. properties file   721 does not exist.
 End of G2Drv F.D. properties file   722 does not exist.
 End of G2Drv F.D. properties file   788 does not exist.
 Leave Link 1110 at Fri Sep 05 16:45:38 2025, MaxMem=   536870912 cpu:               1.0 elap:               0.0
 (Enter C:\G16W\l1002.exe)
 Minotr:  Closed shell wavefunction.
          IDoAtm=11
          Direct CPHF calculation.
          Differentiating once with respect to nuclear coordinates.
          Using symmetry in CPHF.
          Requested convergence is 1.0D-08 RMS, and 1.0D-07 maximum.
          Secondary convergence is 1.0D-12 RMS, and 1.0D-12 maximum.
          NewPWx=T KeepS1=F KeepF1=F KeepIn=T MapXYZ=F SortEE=F KeepMc=T.
 Keep R1 ints in memory in symmetry-blocked form, NReq=804904.
 FoFCou: FMM=F IPFlag=           0 FMFlag=           0 FMFlg1=           0
         NFxFlg=           0 DoJE=F BraDBF=F KetDBF=F FulRan=T
         wScrn=  0.000000 ICntrl=       600 IOpCl=  0 I1Cent=           0 NGrid=           0
         NMat0=    1 NMatS0=     55 NMatT0=    0 NMatD0=    1 NMtDS0=    0 NMtDT0=    0
 Petite list used in FoFCou.
          MDV=     536870912 using IRadAn=       1.
          Solving linear equations simultaneously, MaxMat=       0.
          There are     9 degrees of freedom in the 1st order CPHF.  IDoFFX=6 NUNeed=     0.
      3 vectors produced by pass  0 Test12= 1.00D-16 1.11D-08 XBig12= 9.66D-03 9.82D-02.
 AX will form     3 AO Fock derivatives at one time.
      3 vectors produced by pass  1 Test12= 1.00D-16 1.11D-08 XBig12= 3.38D-06 1.27D-03.
      1 vectors produced by pass  2 Test12= 1.00D-16 1.11D-08 XBig12= 9.40D-10 2.30D-05.
      1 vectors produced by pass  3 Test12= 1.00D-16 1.11D-08 XBig12= 1.65D-13 2.71D-07.
 InvSVY:  IOpt=1 It=  1 EMax= 1.11D-16
 Solved reduced A of dimension     8 with     3 vectors.
 End of Minotr F.D. properties file   721 does not exist.
 End of Minotr F.D. properties file   722 does not exist.
 End of Minotr F.D. properties file   788 does not exist.
 Leave Link 1002 at Fri Sep 05 16:45:38 2025, MaxMem=   536870912 cpu:               0.0 elap:               0.0
 (Enter C:\G16W\l601.exe)
 Copying SCF densities to generalized density rwf, IOpCl= 0 IROHF=0.

 **********************************************************************

            Population analysis using the SCF Density.

 **********************************************************************

 Orbital symmetries:
       Occupied  (SG) (SG) (SG) (PI) (PI) (SG) (SG) (PI) (PI)
       Virtual   (SG)
 The electronic state is 1-SG.
 Alpha  occ. eigenvalues -- -103.72252 -10.40401  -7.84887  -7.84216  -7.84216
 Alpha  occ. eigenvalues --   -1.04362  -0.56448  -0.42315  -0.42315
 Alpha virt. eigenvalues --    0.40398
     Molecular Orbital Coefficients:
                           1         2         3         4         5
                           O         O         O         O         O
     Eigenvalues --  -103.72252 -10.40401  -7.84887  -7.84216  -7.84216
   1 1   Cl 1S          0.99450  -0.37705  -0.00509   0.00000   0.00000
   2        2S          0.01574   1.05359   0.01440   0.00000   0.00000
   3        2PX         0.00000   0.00000   0.00000   0.00000   0.99024
   4        2PY         0.00000   0.00000   0.00000   0.99024   0.00000
   5        2PZ        -0.00013  -0.01149   0.98841   0.00000   0.00000
   6        3S         -0.00185   0.04524  -0.00698   0.00000   0.00000
   7        3PX         0.00000   0.00000   0.00000   0.00000   0.03887
   8        3PY         0.00000   0.00000   0.00000   0.03887   0.00000
   9        3PZ         0.00027  -0.00633   0.04753   0.00000   0.00000
  10 2   H  1S          0.00055  -0.01082   0.01461   0.00000   0.00000
                           6         7         8         9        10
                           O         O         O         O         V
     Eigenvalues --    -1.04362  -0.56448  -0.42315  -0.42315   0.40398
   1 1   Cl 1S          0.08218   0.03148   0.00000   0.00000  -0.02552
   2        2S         -0.27273  -0.09623   0.00000   0.00000   0.06665
   3        2PX         0.00000   0.00000  -0.27678   0.00000   0.00000
   4        2PY         0.00000   0.00000   0.00000  -0.27678   0.00000
   5        2PZ         0.04366  -0.20081   0.00000   0.00000  -0.22071
   6        3S          0.91073   0.47742   0.00000   0.00000  -0.54856
   7        3PX         0.00000   0.00000   1.02746   0.00000   0.00000
   8        3PY         0.00000   0.00000   0.00000   1.02746   0.00000
   9        3PZ        -0.13200   0.67492   0.00000   0.00000   0.96885
  10 2   H  1S          0.18672  -0.50045   0.00000   0.00000   1.16142
     Density Matrix:
                           1         2         3         4         5
   1 1   Cl 1S          2.27796
   2        2S         -0.81425   2.38830
   3        2PX         0.00000   0.00000   2.11438
   4        2PY         0.00000   0.00000   0.00000   2.11438
   5        2PZ        -0.00711   0.01908   0.00000   0.00000   2.03864
   6        3S          0.14202  -0.49359   0.00000   0.00000  -0.12705
   7        3PX         0.00000   0.00000  -0.49177   0.00000   0.00000
   8        3PY         0.00000   0.00000   0.00000  -0.49177   0.00000
   9        3PZ         0.02563  -0.06985   0.00000   0.00000  -0.18849
  10 2   H  1S          0.00829  -0.02790   0.00000   0.00000   0.24642
                           6         7         8         9        10
   6        3S          2.11890
   7        3PX         0.00000   2.11438
   8        3PY         0.00000   0.00000   2.11438
   9        3PZ         0.40277   0.00000   0.00000   0.95048
  10 2   H  1S         -0.13893   0.00000   0.00000  -0.72330   0.57129
    Full Mulliken population analysis:
                           1         2         3         4         5
   1 1   Cl 1S          2.27796
   2        2S         -0.27994   2.38830
   3        2PX         0.00000   0.00000   2.11438
   4        2PY         0.00000   0.00000   0.00000   2.11438
   5        2PZ         0.00000   0.00000   0.00000   0.00000   2.03864
   6        3S          0.00188  -0.10784   0.00000   0.00000   0.00000
   7        3PX         0.00000   0.00000  -0.11438   0.00000   0.00000
   8        3PY         0.00000   0.00000   0.00000  -0.11438   0.00000
   9        3PZ         0.00000   0.00000   0.00000   0.00000  -0.04384
  10 2   H  1S          0.00007  -0.00170   0.00000   0.00000  -0.00670
                           6         7         8         9        10
   6        3S          2.11890
   7        3PX         0.00000   2.11438
   8        3PY         0.00000   0.00000   2.11438
   9        3PZ         0.00000   0.00000   0.00000   0.95048
  10 2   H  1S         -0.05891   0.00000   0.00000   0.32419   0.57129
     Gross orbital populations:
                           1
   1 1   Cl 1S          1.99997
   2        2S          1.99882
   3        2PX         2.00000
   4        2PY         2.00000
   5        2PZ         1.98809
   6        3S          1.95404
   7        3PX         2.00000
   8        3PY         2.00000
   9        3PZ         1.23084
  10 2   H  1S          0.82824
          Condensed to atoms (all electrons):
               1          2
     1  Cl  16.914814   0.256947
     2  H    0.256947   0.571291
 Mulliken charges:
               1
     1  Cl  -0.171761
     2  H    0.171761
 Sum of Mulliken charges =   0.00000
 Mulliken charges with hydrogens summed into heavy atoms:
               1
     1  Cl   0.000000
 APT charges:
               1
     1  Cl  -0.351679
     2  H    0.351679
 Sum of APT charges =   0.00000
 APT charges with hydrogens summed into heavy atoms:
               1
     1  Cl   0.000000
 Electronic spatial extent (au):  <R**2>=             31.5774
 Charge=              0.0000 electrons
 Dipole moment (field-independent basis, Debye):
    X=              0.0000    Y=              0.0000    Z=             -1.7343  Tot=              1.7343
 Quadrupole moment (field-independent basis, Debye-Ang):
   XX=            -12.5552   YY=            -12.5552   ZZ=             -9.9878
   XY=              0.0000   XZ=              0.0000   YZ=              0.0000
 Traceless Quadrupole moment (field-independent basis, Debye-Ang):
   XX=             -0.8558   YY=             -0.8558   ZZ=              1.7117
   XY=              0.0000   XZ=              0.0000   YZ=              0.0000
 Octapole moment (field-independent basis, Debye-Ang**2):
  XXX=              0.0000  YYY=              0.0000  ZZZ=             -1.9196  XYY=              0.0000
  XXY=              0.0000  XXZ=             -0.1380  XZZ=              0.0000  YZZ=              0.0000
  YYZ=             -0.1380  XYZ=              0.0000
 Hexadecapole moment (field-independent basis, Debye-Ang**3):
 XXXX=            -10.4206 YYYY=            -10.4206 ZZZZ=            -12.5874 XXXY=              0.0000
 XXXZ=              0.0000 YYYX=              0.0000 YYYZ=              0.0000 ZZZX=              0.0000
 ZZZY=              0.0000 XXYY=             -3.4735 XXZZ=             -4.3254 YYZZ=             -4.3254
 XXYZ=              0.0000 YYXZ=              0.0000 ZZXY=              0.0000
 N-N= 7.055696145600D+00 E-N=-1.091240818867D+03  KE= 4.470880096950D+02
 Symmetry A1   KE= 3.610872543390D+02
 Symmetry A2   KE= 0.000000000000D+00
 Symmetry B1   KE= 4.300037767804D+01
 Symmetry B2   KE= 4.300037767804D+01
 Orbital energies and kinetic energies (alpha):
                                 1                 2
   1         O              -103.722525        131.981983
   2         O               -10.404013         25.655238
   3         O                -7.848869         19.183116
   4         O                -7.842164         19.239031
   5         O                -7.842164         19.239031
   6         O                -1.043617          2.012647
   7         O                -0.564479          1.710643
   8         O                -0.423148          2.261158
   9         O                -0.423148          2.261158
  10         V                 0.403977          2.433268
 Total kinetic energy from orbitals= 4.470880096950D+02
  Exact polarizability:   0.000   0.000   0.000   0.000   0.000   0.000
 Approx polarizability:   0.126   0.000   0.126   0.000   0.000   6.842
 No NMR shielding tensors so no spin-rotation constants.
 Leave Link  601 at Fri Sep 05 16:45:38 2025, MaxMem=   536870912 cpu:               0.0 elap:               0.0
 (Enter C:\G16W\l701.exe)
 ... and contract with generalized density number  0.
 Compute integral second derivatives.
 Leave Link  701 at Fri Sep 05 16:45:38 2025, MaxMem=   536870912 cpu:               0.0 elap:               0.0
 (Enter C:\G16W\l702.exe)
 L702 exits ... SP integral derivatives will be done elsewhere.
 Leave Link  702 at Fri Sep 05 16:45:38 2025, MaxMem=   536870912 cpu:               0.0 elap:               0.0
 (Enter C:\G16W\l703.exe)
 Integral derivatives from FoFJK, PRISM(SPDF).
 Compute integral second derivatives, UseDBF=F ICtDFT=           0.
 Calling FoFJK, ICntrl=    100147 FMM=F ISym2X=1 I1Cent= 0 IOpClX= 0 NMat=1 NMatS=1 NMatT=0.
 FoFJK:  IHMeth= 1 ICntrl=  100147 DoSepK=F KAlg= 0 I1Cent=           0 FoldK=F
 IRaf=         0 NMat=       1 IRICut=       1 DoRegI=T DoRafI=F ISym2E= 1 IDoP0=0 IntGTp=1.
 FoFCou: FMM=F IPFlag=           0 FMFlag=      100000 FMFlg1=         800
         NFxFlg=           0 DoJE=F BraDBF=F KetDBF=F FulRan=T
         wScrn=  0.000000 ICntrl=    100147 IOpCl=  0 I1Cent=           0 NGrid=           0
         NMat0=    1 NMatS0=      1 NMatT0=    0 NMatD0=    1 NMtDS0=    0 NMtDT0=    0
 Petite list used in FoFCou.
 Leave Link  703 at Fri Sep 05 16:45:38 2025, MaxMem=   536870912 cpu:               0.0 elap:               0.0
 (Enter C:\G16W\l716.exe)
 Dipole        = 0.00000000D+00 0.00000000D+00-6.82320363D-01
 Polarizability= 0.00000000D+00 0.00000000D+00 0.00000000D+00
                 0.00000000D+00 0.00000000D+00 0.00000000D+00
 ***** Axes restored to original set *****
 -------------------------------------------------------------------
 Center     Atomic                   Forces (Hartrees/Bohr)
 Number     Number              X              Y              Z
 -------------------------------------------------------------------
      1       17           0.000000000    0.000000000   -0.033485480
      2        1           0.000000000    0.000000000    0.033485480
 -------------------------------------------------------------------
 Cartesian Forces:  Max     0.033485480 RMS     0.019332851
 Force constants in Cartesian coordinates: 
                1             2             3             4             5 
      1 -0.138978D-01
      2  0.000000D+00 -0.138978D-01
      3  0.000000D+00  0.000000D+00  0.505051D+00
      4  0.138978D-01  0.000000D+00  0.000000D+00 -0.138978D-01
      5  0.000000D+00  0.138978D-01  0.000000D+00  0.000000D+00 -0.138978D-01
      6  0.000000D+00  0.000000D+00 -0.505051D+00  0.000000D+00  0.000000D+00
                6 
      6  0.505051D+00
 FormGI is forming the generalized inverse of G from B-inverse, IUseBI=4.
 Force constants in internal coordinates: 
                1 
      1  0.505051D+00
 Leave Link  716 at Fri Sep 05 16:45:39 2025, MaxMem=   536870912 cpu:               1.0 elap:               0.0
 (Enter C:\G16W\l103.exe)

 GradGradGradGradGradGradGradGradGradGradGradGradGradGradGradGradGradGrad
 Berny optimization.
 Red2BG is reusing G-inverse.
 Internal  Forces:  Max     0.033485480 RMS     0.033485480
 Search for a local minimum.
 Step number   1 out of a maximum of   20
 All quantities printed in internal units (Hartrees-Bohrs-Radians)
 RMS Force = .33485D-01 SwitMx=.10000D-02 MixMth= 1
 Mixed Optimization -- RFO/linear search
 Second derivative matrix not updated -- analytic derivatives used.
 The second derivative matrix:
                          R1
           R1           0.50505
 ITU=  0
     Eigenvalues ---    0.50505
 RFO step:  Lambda=-2.21045136D-03 EMin= 5.05051281D-01
 Linear search not attempted -- first point.
 Iteration  1 RMS(Cart)=  0.04667770 RMS(Int)=  0.00000000
 Iteration  2 RMS(Cart)=  0.00000000 RMS(Int)=  0.00000000
 ITry= 1 IFail=0 DXMaxC= 3.30D-02 DCOld= 1.00D+10 DXMaxT= 3.00D-01 DXLimC= 3.00D+00 Rises=F
 ClnCor:  largest displacement from symmetrization is 6.94D-18 for atom     1.
 Variable       Old X    -DE/DX   Delta X   Delta X   Delta X     New X
                                 (Linear)    (Quad)   (Total)
    R1        2.40940   0.03349   0.00000   0.06601   0.06601   2.47541
         Item               Value     Threshold  Converged?
 Maximum Force            0.033485     0.000015     NO 
 RMS     Force            0.033485     0.000010     NO 
 Maximum Displacement     0.033006     0.000060     NO 
 RMS     Displacement     0.046678     0.000040     NO 
 Predicted change in Energy=-1.110042D-03
 Lowest energy point so far.  Saving SCF results.
 GradGradGradGradGradGradGradGradGradGradGradGradGradGradGradGradGradGrad

 Leave Link  103 at Fri Sep 05 16:45:39 2025, MaxMem=   536870912 cpu:               0.0 elap:               0.0
 (Enter C:\G16W\l202.exe)
                          Input orientation:                          
 ---------------------------------------------------------------------
 Center     Atomic      Atomic             Coordinates (Angstroms)
 Number     Number       Type             X           Y           Z
 ---------------------------------------------------------------------
      1         17           0        0.000000    0.000000   -0.017466
      2          1           0        0.000000    0.000000    1.292466
 ---------------------------------------------------------------------
 Stoichiometry    ClH
 Framework group  C*V[C*(HCl)]
 Deg. of freedom     1
 Full point group                 C*V     NOp   4
 RotChk:  IX=0 Diff= 0.00D+00
 Largest Abelian subgroup         C2V     NOp   4
 Largest concise Abelian subgroup C1      NOp   1
                         Standard orientation:                         
 ---------------------------------------------------------------------
 Center     Atomic      Atomic             Coordinates (Angstroms)
 Number     Number       Type             X           Y           Z
 ---------------------------------------------------------------------
      1         17           0        0.000000    0.000000    0.072774
      2          1           0        0.000000    0.000000   -1.237158
 ---------------------------------------------------------------------
 Rotational constants (GHZ):           0.0000000         300.6589338         300.6589338
 Leave Link  202 at Fri Sep 05 16:45:39 2025, MaxMem=   536870912 cpu:               0.0 elap:               0.0
 (Enter C:\G16W\l301.exe)
 Standard basis: STO-3G (5D, 7F)
 Ernie: Thresh=  0.10000D-02 Tol=  0.10000D-05 Strict=F.
 There are     6 symmetry adapted cartesian basis functions of A1  symmetry.
 There are     0 symmetry adapted cartesian basis functions of A2  symmetry.
 There are     2 symmetry adapted cartesian basis functions of B1  symmetry.
 There are     2 symmetry adapted cartesian basis functions of B2  symmetry.
 There are     6 symmetry adapted basis functions of A1  symmetry.
 There are     0 symmetry adapted basis functions of A2  symmetry.
 There are     2 symmetry adapted basis functions of B1  symmetry.
 There are     2 symmetry adapted basis functions of B2  symmetry.
    10 basis functions,    30 primitive gaussians,    10 cartesian basis functions
     9 alpha electrons        9 beta electrons
       nuclear repulsion energy         6.8675407719 Hartrees.
 IExCor=    0 DFT=F Ex=HF Corr=None ExCW=0 ScaHFX=  1.000000
 ScaDFX=  1.000000  1.000000  1.000000  1.000000 ScalE2=  1.000000  1.000000
 IRadAn=      5 IRanWt=     -1 IRanGd=            0 ICorTp=0 IEmpDi=  4
 NAtoms=    2 NActive=    2 NUniq=    2 SFac= 1.00D+00 NAtFMM=   60 NAOKFM=F Big=F
 Integral buffers will be    131072 words long.
 Raffenetti 1 integral format.
 Two-electron integral symmetry is turned on.
 Leave Link  301 at Fri Sep 05 16:45:39 2025, MaxMem=   536870912 cpu:               0.0 elap:               0.0
 (Enter C:\G16W\l302.exe)
 NPDir=0 NMtPBC=     1 NCelOv=     1 NCel=       1 NClECP=     1 NCelD=      1
         NCelK=      1 NCelE2=     1 NClLst=     1 CellRange=     0.0.
 One-electron integrals computed using PRISM.
 One-electron integral symmetry used in STVInt
 NBasis=    10 RedAO= T EigKep=  3.77D-01  NBF=     6     0     2     2
 NBsUse=    10 1.00D-06 EigRej= -1.00D+00 NBFU=     6     0     2     2
 Leave Link  302 at Fri Sep 05 16:45:39 2025, MaxMem=   536870912 cpu:               0.0 elap:               0.0
 (Enter C:\G16W\l303.exe)
 DipDrv:  MaxL=1.
 Leave Link  303 at Fri Sep 05 16:45:39 2025, MaxMem=   536870912 cpu:               0.0 elap:               0.0
 (Enter C:\G16W\l401.exe)
 Initial guess from the checkpoint file:  "HCl.chk"
 B after Tr=     0.000000    0.000000    0.000000
         Rot=    1.000000    0.000000    0.000000    0.000000 Ang=   0.00 deg.
 Guess basis will be translated and rotated to current coordinates.
 JPrj=2 DoOrth=T DoCkMO=T.
 Initial guess orbital symmetries:
       Occupied  (SG) (SG) (SG) (PI) (PI) (SG) (SG) (PI) (PI)
       Virtual   (SG)
 The electronic state of the initial guess is 1-SG.
 Generating alternative initial guess.
 ExpMin= 1.69D-01 ExpMax= 6.01D+02 ExpMxC= 6.01D+02 IAcc=3 IRadAn=         5 AccDes= 0.00D+00
 Harris functional with IExCor=  205 and IRadAn=       5 diagonalized for initial guess.
 HarFok:  IExCor=  205 AccDes= 0.00D+00 IRadAn=         5 IDoV= 1 UseB2=F ITyADJ=14
 ICtDFT=  3500011 ScaDFX=  1.000000  1.000000  1.000000  1.000000
 FoFCou: FMM=F IPFlag=           0 FMFlag=      100000 FMFlg1=           0
         NFxFlg=           0 DoJE=T BraDBF=F KetDBF=T FulRan=T
         wScrn=  0.000000 ICntrl=       500 IOpCl=  0 I1Cent=   200000004 NGrid=           0
         NMat0=    1 NMatS0=      1 NMatT0=    0 NMatD0=    1 NMtDS0=    0 NMtDT0=    0
 Petite list used in FoFCou.
 Harris En= -454.574230241215    
 Leave Link  401 at Fri Sep 05 16:45:39 2025, MaxMem=   536870912 cpu:               0.0 elap:               0.1
 (Enter C:\G16W\l502.exe)
 Keep R1 ints in memory in symmetry-blocked form, NReq=804496.
 FoFCou: FMM=F IPFlag=           0 FMFlag=           0 FMFlg1=           0
         NFxFlg=           0 DoJE=F BraDBF=F KetDBF=F FulRan=T
         wScrn=  0.000000 ICntrl=       600 IOpCl=  0 I1Cent=           0 NGrid=           0
         NMat0=    1 NMatS0=     55 NMatT0=    0 NMatD0=    1 NMtDS0=    0 NMtDT0=    0
 Petite list used in FoFCou.
 Closed shell SCF:
 Using DIIS extrapolation, IDIIS=  1040.
 NGot=   536870912 LenX=   536868482 LenY=   536867600
 Requested convergence on RMS density matrix=1.00D-08 within 128 cycles.
 Requested convergence on MAX density matrix=1.00D-06.
 Requested convergence on             energy=1.00D-06.
 No special actions if energy rises.

 Cycle   1  Pass 1  IDiag  1:
 E= -455.135987139445    
 DIIS: error= 2.23D-03 at cycle   1 NSaved=   1.
 NSaved= 1 IEnMin= 1 EnMin= -455.135987139445     IErMin= 1 ErrMin= 2.23D-03
 ErrMax= 2.23D-03  0.00D+00 EMaxC= 1.00D-01 BMatC= 4.99D-05 BMatP= 4.99D-05
 IDIUse=3 WtCom= 9.78D-01 WtEn= 2.23D-02
 Coeff-Com:  0.100D+01
 Coeff-En:   0.100D+01
 Coeff:      0.100D+01
 Gap=     0.801 Goal=   None    Shift=    0.000
 GapD=    0.801 DampG=2.000 DampE=1.000 DampFc=2.0000 IDamp=-1.
 RMSDP=3.68D-04 MaxDP=1.61D-03              OVMax= 0.00D+00

 Cycle   2  Pass 1  IDiag  1:
 E= -455.136002685175     Delta-E=       -0.000015545730 Rises=F Damp=F
 DIIS: error= 1.56D-04 at cycle   2 NSaved=   2.
 NSaved= 2 IEnMin= 2 EnMin= -455.136002685175     IErMin= 2 ErrMin= 1.56D-04
 ErrMax= 1.56D-04  0.00D+00 EMaxC= 1.00D-01 BMatC= 1.95D-07 BMatP= 4.99D-05
 IDIUse=3 WtCom= 9.98D-01 WtEn= 1.56D-03
 Coeff-Com: -0.526D-01 0.105D+01
 Coeff-En:   0.000D+00 0.100D+01
 Coeff:     -0.526D-01 0.105D+01
 Gap=     0.801 Goal=   None    Shift=    0.000
 RMSDP=5.37D-05 MaxDP=2.12D-04 DE=-1.55D-05 OVMax= 0.00D+00

 Cycle   3  Pass 1  IDiag  1:
 E= -455.136002874069     Delta-E=       -0.000000188894 Rises=F Damp=F
 DIIS: error= 1.50D-05 at cycle   3 NSaved=   3.
 NSaved= 3 IEnMin= 3 EnMin= -455.136002874069     IErMin= 3 ErrMin= 1.50D-05
 ErrMax= 1.50D-05  0.00D+00 EMaxC= 1.00D-01 BMatC= 2.45D-09 BMatP= 1.95D-07
 IDIUse=1 WtCom= 1.00D+00 WtEn= 0.00D+00
 Coeff-Com:  0.820D-02-0.196D+00 0.119D+01
 Coeff:      0.820D-02-0.196D+00 0.119D+01
 Gap=     0.801 Goal=   None    Shift=    0.000
 RMSDP=1.02D-05 MaxDP=4.62D-05 DE=-1.89D-07 OVMax= 0.00D+00

 Cycle   4  Pass 1  IDiag  1:
 E= -455.136002878475     Delta-E=       -0.000000004406 Rises=F Damp=F
 DIIS: error= 7.64D-07 at cycle   4 NSaved=   4.
 NSaved= 4 IEnMin= 4 EnMin= -455.136002878475     IErMin= 4 ErrMin= 7.64D-07
 ErrMax= 7.64D-07  0.00D+00 EMaxC= 1.00D-01 BMatC= 7.45D-12 BMatP= 2.45D-09
 IDIUse=1 WtCom= 1.00D+00 WtEn= 0.00D+00
 Coeff-Com: -0.139D-03 0.458D-02-0.805D-01 0.108D+01
 Coeff:     -0.139D-03 0.458D-02-0.805D-01 0.108D+01
 Gap=     0.801 Goal=   None    Shift=    0.000
 RMSDP=6.08D-07 MaxDP=2.86D-06 DE=-4.41D-09 OVMax= 0.00D+00

 Cycle   5  Pass 1  IDiag  1:
 E= -455.136002878488     Delta-E=       -0.000000000013 Rises=F Damp=F
 DIIS: error= 1.05D-08 at cycle   5 NSaved=   5.
 NSaved= 5 IEnMin= 5 EnMin= -455.136002878488     IErMin= 5 ErrMin= 1.05D-08
 ErrMax= 1.05D-08  0.00D+00 EMaxC= 1.00D-01 BMatC= 9.32D-16 BMatP= 7.45D-12
 IDIUse=1 WtCom= 1.00D+00 WtEn= 0.00D+00
 Coeff-Com:  0.538D-05-0.230D-03 0.483D-02-0.690D-01 0.106D+01
 Coeff:      0.538D-05-0.230D-03 0.483D-02-0.690D-01 0.106D+01
 Gap=     0.801 Goal=   None    Shift=    0.000
 RMSDP=5.10D-09 MaxDP=2.93D-08 DE=-1.32D-11 OVMax= 0.00D+00

 SCF Done:  E(RHF) =  -455.136002878     A.U. after    5 cycles
            NFock=  5  Conv=0.51D-08     -V/T= 2.0180
 KE= 4.470748751518D+02 PE=-1.090932172552D+03 EE= 1.818537537495D+02
 Leave Link  502 at Fri Sep 05 16:45:39 2025, MaxMem=   536870912 cpu:               0.0 elap:               0.1
 (Enter C:\G16W\l701.exe)
 ... and contract with generalized density number  0.
 Compute integral first derivatives.
 Leave Link  701 at Fri Sep 05 16:45:39 2025, MaxMem=   536870912 cpu:               0.0 elap:               0.0
 (Enter C:\G16W\l702.exe)
 L702 exits ... SP integral derivatives will be done elsewhere.
 Leave Link  702 at Fri Sep 05 16:45:39 2025, MaxMem=   536870912 cpu:               0.0 elap:               0.0
 (Enter C:\G16W\l703.exe)
 Integral derivatives from FoFJK, PRISM(SPDF).
 Compute integral first derivatives, UseDBF=F ICtDFT=           0.
 Calling FoFJK, ICntrl=      2127 FMM=F ISym2X=1 I1Cent= 0 IOpClX= 0 NMat=1 NMatS=1 NMatT=0.
 FoFJK:  IHMeth= 1 ICntrl=    2127 DoSepK=F KAlg= 0 I1Cent=           0 FoldK=F
 IRaf=         0 NMat=       1 IRICut=       1 DoRegI=T DoRafI=F ISym2E= 1 IDoP0=0 IntGTp=1.
 FoFCou: FMM=F IPFlag=           0 FMFlag=      100000 FMFlg1=         800
         NFxFlg=           0 DoJE=F BraDBF=F KetDBF=F FulRan=T
         wScrn=  0.000000 ICntrl=      2127 IOpCl=  0 I1Cent=           0 NGrid=           0
         NMat0=    1 NMatS0=      1 NMatT0=    0 NMatD0=    1 NMtDS0=    0 NMtDT0=    0
 Petite list used in FoFCou.
 Leave Link  703 at Fri Sep 05 16:45:39 2025, MaxMem=   536870912 cpu:               0.0 elap:               0.0
 (Enter C:\G16W\l716.exe)
 Dipole        = 0.00000000D+00 0.00000000D+00-6.93335143D-01
 ***** Axes restored to original set *****
 -------------------------------------------------------------------
 Center     Atomic                   Forces (Hartrees/Bohr)
 Number     Number              X              Y              Z
 -------------------------------------------------------------------
      1       17           0.000000000    0.000000000   -0.002735226
      2        1           0.000000000    0.000000000    0.002735226
 -------------------------------------------------------------------
 Cartesian Forces:  Max     0.002735226 RMS     0.001579183
 Leave Link  716 at Fri Sep 05 16:45:39 2025, MaxMem=   536870912 cpu:               0.0 elap:               0.0
 (Enter C:\G16W\l103.exe)

 GradGradGradGradGradGradGradGradGradGradGradGradGradGradGradGradGradGrad
 Berny optimization.
 Using GEDIIS/GDIIS optimizer.
 Red2BG is reusing G-inverse.
 Internal  Forces:  Max     0.002735226 RMS     0.002735226
 Search for a local minimum.
 Step number   2 out of a maximum of   20
 All quantities printed in internal units (Hartrees-Bohrs-Radians)
 RMS Force = .27352D-02 SwitMx=.10000D-02 MixMth= 1
 Mixed Optimization -- RFO/linear search
 Update second derivatives using D2CorX and points    1    2
 DE= -1.17D-03 DEPred=-1.11D-03 R= 1.05D+00
 TightC=F SS=  1.41D+00  RLast= 6.60D-02 DXNew= 5.0454D-01 1.9804D-01
 Trust test= 1.05D+00 RLast= 6.60D-02 DXMaxT set to 3.00D-01
 The second derivative matrix:
                          R1
           R1           0.46583
 ITU=  1  0
 Use linear search instead of GDIIS.
     Eigenvalues ---    0.46583
 RFO step:  Lambda= 0.00000000D+00 EMin= 4.65826597D-01
 Quartic linear search produced a step of  0.09760.
 Iteration  1 RMS(Cart)=  0.00455593 RMS(Int)=  0.00000000
 Iteration  2 RMS(Cart)=  0.00000000 RMS(Int)=  0.00000000
 ITry= 1 IFail=0 DXMaxC= 3.22D-03 DCOld= 1.00D+10 DXMaxT= 3.00D-01 DXLimC= 3.00D+00 Rises=F
 ClnCor:  largest displacement from symmetrization is 0.00D+00 for atom     0.
 Variable       Old X    -DE/DX   Delta X   Delta X   Delta X     New X
                                 (Linear)    (Quad)   (Total)
    R1        2.47541   0.00274   0.00644   0.00000   0.00644   2.48186
         Item               Value     Threshold  Converged?
 Maximum Force            0.002735     0.000015     NO 
 RMS     Force            0.002735     0.000010     NO 
 Maximum Displacement     0.003222     0.000060     NO 
 RMS     Displacement     0.004556     0.000040     NO 
 Predicted change in Energy=-7.954292D-06
 Lowest energy point so far.  Saving SCF results.
 GradGradGradGradGradGradGradGradGradGradGradGradGradGradGradGradGradGrad

 Leave Link  103 at Fri Sep 05 16:45:39 2025, MaxMem=   536870912 cpu:               0.0 elap:               0.0
 (Enter C:\G16W\l202.exe)
                          Input orientation:                          
 ---------------------------------------------------------------------
 Center     Atomic      Atomic             Coordinates (Angstroms)
 Number     Number       Type             X           Y           Z
 ---------------------------------------------------------------------
      1         17           0        0.000000    0.000000   -0.019171
      2          1           0        0.000000    0.000000    1.294171
 ---------------------------------------------------------------------
 Stoichiometry    ClH
 Framework group  C*V[C*(HCl)]
 Deg. of freedom     1
 Full point group                 C*V     NOp   4
 RotChk:  IX=0 Diff= 0.00D+00
 Largest Abelian subgroup         C2V     NOp   4
 Largest concise Abelian subgroup C1      NOp   1
                         Standard orientation:                         
 ---------------------------------------------------------------------
 Center     Atomic      Atomic             Coordinates (Angstroms)
 Number     Number       Type             X           Y           Z
 ---------------------------------------------------------------------
      1         17           0        0.000000    0.000000    0.072963
      2          1           0        0.000000    0.000000   -1.240378
 ---------------------------------------------------------------------
 Rotational constants (GHZ):           0.0000000         299.0999018         299.0999018
 Leave Link  202 at Fri Sep 05 16:45:39 2025, MaxMem=   536870912 cpu:               0.0 elap:               0.0
 (Enter C:\G16W\l301.exe)
 Standard basis: STO-3G (5D, 7F)
 Ernie: Thresh=  0.10000D-02 Tol=  0.10000D-05 Strict=F.
 There are     6 symmetry adapted cartesian basis functions of A1  symmetry.
 There are     0 symmetry adapted cartesian basis functions of A2  symmetry.
 There are     2 symmetry adapted cartesian basis functions of B1  symmetry.
 There are     2 symmetry adapted cartesian basis functions of B2  symmetry.
 There are     6 symmetry adapted basis functions of A1  symmetry.
 There are     0 symmetry adapted basis functions of A2  symmetry.
 There are     2 symmetry adapted basis functions of B1  symmetry.
 There are     2 symmetry adapted basis functions of B2  symmetry.
    10 basis functions,    30 primitive gaussians,    10 cartesian basis functions
     9 alpha electrons        9 beta electrons
       nuclear repulsion energy         6.8497122120 Hartrees.
 IExCor=    0 DFT=F Ex=HF Corr=None ExCW=0 ScaHFX=  1.000000
 ScaDFX=  1.000000  1.000000  1.000000  1.000000 ScalE2=  1.000000  1.000000
 IRadAn=      5 IRanWt=     -1 IRanGd=            0 ICorTp=0 IEmpDi=  4
 NAtoms=    2 NActive=    2 NUniq=    2 SFac= 1.00D+00 NAtFMM=   60 NAOKFM=F Big=F
 Integral buffers will be    131072 words long.
 Raffenetti 1 integral format.
 Two-electron integral symmetry is turned on.
 Leave Link  301 at Fri Sep 05 16:45:39 2025, MaxMem=   536870912 cpu:               0.0 elap:               0.0
 (Enter C:\G16W\l302.exe)
 NPDir=0 NMtPBC=     1 NCelOv=     1 NCel=       1 NClECP=     1 NCelD=      1
         NCelK=      1 NCelE2=     1 NClLst=     1 CellRange=     0.0.
 One-electron integrals computed using PRISM.
 One-electron integral symmetry used in STVInt
 NBasis=    10 RedAO= T EigKep=  3.79D-01  NBF=     6     0     2     2
 NBsUse=    10 1.00D-06 EigRej= -1.00D+00 NBFU=     6     0     2     2
 Leave Link  302 at Fri Sep 05 16:45:39 2025, MaxMem=   536870912 cpu:               0.0 elap:               0.0
 (Enter C:\G16W\l303.exe)
 DipDrv:  MaxL=1.
 Leave Link  303 at Fri Sep 05 16:45:39 2025, MaxMem=   536870912 cpu:               0.0 elap:               0.0
 (Enter C:\G16W\l401.exe)
 Initial guess from the checkpoint file:  "HCl.chk"
 B after Tr=     0.000000    0.000000    0.000000
         Rot=    1.000000    0.000000    0.000000    0.000000 Ang=   0.00 deg.
 Guess basis will be translated and rotated to current coordinates.
 JPrj=2 DoOrth=T DoCkMO=T.
 Initial guess orbital symmetries:
       Occupied  (SG) (SG) (SG) (PI) (PI) (SG) (SG) (PI) (PI)
       Virtual   (SG)
 The electronic state of the initial guess is 1-SG.
 Leave Link  401 at Fri Sep 05 16:45:39 2025, MaxMem=   536870912 cpu:               0.0 elap:               0.0
 (Enter C:\G16W\l502.exe)
 Keep R1 ints in memory in symmetry-blocked form, NReq=804496.
 FoFCou: FMM=F IPFlag=           0 FMFlag=           0 FMFlg1=           0
         NFxFlg=           0 DoJE=F BraDBF=F KetDBF=F FulRan=T
         wScrn=  0.000000 ICntrl=       600 IOpCl=  0 I1Cent=           0 NGrid=           0
         NMat0=    1 NMatS0=     55 NMatT0=    0 NMatD0=    1 NMtDS0=    0 NMtDT0=    0
 Petite list used in FoFCou.
 Closed shell SCF:
 Using DIIS extrapolation, IDIIS=  1040.
 NGot=   536870912 LenX=   536868482 LenY=   536867600
 Requested convergence on RMS density matrix=1.00D-08 within 128 cycles.
 Requested convergence on MAX density matrix=1.00D-06.
 Requested convergence on             energy=1.00D-06.
 No special actions if energy rises.

 Cycle   1  Pass 1  IDiag  1:
 E= -455.136011515817    
 DIIS: error= 2.13D-04 at cycle   1 NSaved=   1.
 NSaved= 1 IEnMin= 1 EnMin= -455.136011515817     IErMin= 1 ErrMin= 2.13D-04
 ErrMax= 2.13D-04  0.00D+00 EMaxC= 1.00D-01 BMatC= 4.54D-07 BMatP= 4.54D-07
 IDIUse=3 WtCom= 9.98D-01 WtEn= 2.13D-03
 Coeff-Com:  0.100D+01
 Coeff-En:   0.100D+01
 Coeff:      0.100D+01
 Gap=     0.798 Goal=   None    Shift=    0.000
 RMSDP=3.41D-05 MaxDP=1.46D-04              OVMax= 0.00D+00

 Cycle   2  Pass 1  IDiag  1:
 E= -455.136011653406     Delta-E=       -0.000000137589 Rises=F Damp=F
 DIIS: error= 1.47D-05 at cycle   2 NSaved=   2.
 NSaved= 2 IEnMin= 2 EnMin= -455.136011653406     IErMin= 2 ErrMin= 1.47D-05
 ErrMax= 1.47D-05  0.00D+00 EMaxC= 1.00D-01 BMatC= 1.74D-09 BMatP= 4.54D-07
 IDIUse=1 WtCom= 1.00D+00 WtEn= 0.00D+00
 Coeff-Com: -0.524D-01 0.105D+01
 Coeff:     -0.524D-01 0.105D+01
 Gap=     0.798 Goal=   None    Shift=    0.000
 RMSDP=5.00D-06 MaxDP=1.97D-05 DE=-1.38D-07 OVMax= 0.00D+00

 Cycle   3  Pass 1  IDiag  1:
 E= -455.136011655045     Delta-E=       -0.000000001639 Rises=F Damp=F
 DIIS: error= 1.38D-06 at cycle   3 NSaved=   3.
 NSaved= 3 IEnMin= 3 EnMin= -455.136011655045     IErMin= 3 ErrMin= 1.38D-06
 ErrMax= 1.38D-06  0.00D+00 EMaxC= 1.00D-01 BMatC= 2.13D-11 BMatP= 1.74D-09
 IDIUse=1 WtCom= 1.00D+00 WtEn= 0.00D+00
 Coeff-Com:  0.815D-02-0.194D+00 0.119D+01
 Coeff:      0.815D-02-0.194D+00 0.119D+01
 Gap=     0.798 Goal=   None    Shift=    0.000
 RMSDP=9.51D-07 MaxDP=4.30D-06 DE=-1.64D-09 OVMax= 0.00D+00

 Cycle   4  Pass 1  IDiag  1:
 E= -455.136011655083     Delta-E=       -0.000000000038 Rises=F Damp=F
 DIIS: error= 7.44D-08 at cycle   4 NSaved=   4.
 NSaved= 4 IEnMin= 4 EnMin= -455.136011655083     IErMin= 4 ErrMin= 7.44D-08
 ErrMax= 7.44D-08  0.00D+00 EMaxC= 1.00D-01 BMatC= 6.86D-14 BMatP= 2.13D-11
 IDIUse=1 WtCom= 1.00D+00 WtEn= 0.00D+00
 Coeff-Com: -0.135D-03 0.450D-02-0.821D-01 0.108D+01
 Coeff:     -0.135D-03 0.450D-02-0.821D-01 0.108D+01
 Gap=     0.798 Goal=   None    Shift=    0.000
 RMSDP=5.81D-08 MaxDP=2.73D-07 DE=-3.80D-11 OVMax= 0.00D+00

 Cycle   5  Pass 1  IDiag  1:
 E= -455.136011655083     Delta-E=        0.000000000000 Rises=F Damp=F
 DIIS: error= 9.17D-10 at cycle   5 NSaved=   5.
 NSaved= 5 IEnMin= 5 EnMin= -455.136011655083     IErMin= 5 ErrMin= 9.17D-10
 ErrMax= 9.17D-10  0.00D+00 EMaxC= 1.00D-01 BMatC= 7.19D-18 BMatP= 6.86D-14
 IDIUse=1 WtCom= 1.00D+00 WtEn= 0.00D+00
 Coeff-Com:  0.517D-05-0.221D-03 0.480D-02-0.669D-01 0.106D+01
 Coeff:      0.517D-05-0.221D-03 0.480D-02-0.669D-01 0.106D+01
 Gap=     0.798 Goal=   None    Shift=    0.000
 RMSDP=4.17D-10 MaxDP=2.41D-09 DE=-2.27D-13 OVMax= 0.00D+00

 SCF Done:  E(RHF) =  -455.136011655     A.U. after    5 cycles
            NFock=  5  Conv=0.42D-09     -V/T= 2.0180
 KE= 4.470737674438D+02 PE=-1.090902871081D+03 EE= 1.818433797701D+02
 Leave Link  502 at Fri Sep 05 16:45:39 2025, MaxMem=   536870912 cpu:               0.0 elap:               0.1
 (Enter C:\G16W\l701.exe)
 ... and contract with generalized density number  0.
 Compute integral first derivatives.
 Leave Link  701 at Fri Sep 05 16:45:39 2025, MaxMem=   536870912 cpu:               0.0 elap:               0.0
 (Enter C:\G16W\l702.exe)
 L702 exits ... SP integral derivatives will be done elsewhere.
 Leave Link  702 at Fri Sep 05 16:45:40 2025, MaxMem=   536870912 cpu:               0.0 elap:               0.0
 (Enter C:\G16W\l703.exe)
 Integral derivatives from FoFJK, PRISM(SPDF).
 Compute integral first derivatives, UseDBF=F ICtDFT=           0.
 Calling FoFJK, ICntrl=      2127 FMM=F ISym2X=1 I1Cent= 0 IOpClX= 0 NMat=1 NMatS=1 NMatT=0.
 FoFJK:  IHMeth= 1 ICntrl=    2127 DoSepK=F KAlg= 0 I1Cent=           0 FoldK=F
 IRaf=         0 NMat=       1 IRICut=       1 DoRegI=T DoRafI=F ISym2E= 1 IDoP0=0 IntGTp=1.
 FoFCou: FMM=F IPFlag=           0 FMFlag=      100000 FMFlg1=         800
         NFxFlg=           0 DoJE=F BraDBF=F KetDBF=F FulRan=T
         wScrn=  0.000000 ICntrl=      2127 IOpCl=  0 I1Cent=           0 NGrid=           0
         NMat0=    1 NMatS0=      1 NMatT0=    0 NMatD0=    1 NMtDS0=    0 NMtDT0=    0
 Petite list used in FoFCou.
 Leave Link  703 at Fri Sep 05 16:45:40 2025, MaxMem=   536870912 cpu:               0.0 elap:               0.0
 (Enter C:\G16W\l716.exe)
 Dipole        = 0.00000000D+00 0.00000000D+00-6.94413265D-01
 ***** Axes restored to original set *****
 -------------------------------------------------------------------
 Center     Atomic                   Forces (Hartrees/Bohr)
 Number     Number              X              Y              Z
 -------------------------------------------------------------------
      1       17           0.000000000    0.000000000    0.000003482
      2        1           0.000000000    0.000000000   -0.000003482
 -------------------------------------------------------------------
 Cartesian Forces:  Max     0.000003482 RMS     0.000002011
 Leave Link  716 at Fri Sep 05 16:45:40 2025, MaxMem=   536870912 cpu:               0.0 elap:               0.0
 (Enter C:\G16W\l103.exe)

 GradGradGradGradGradGradGradGradGradGradGradGradGradGradGradGradGradGrad
 Berny optimization.
 Using GEDIIS/GDIIS optimizer.
 Red2BG is reusing G-inverse.
 Internal  Forces:  Max     0.000003482 RMS     0.000003482
 Search for a local minimum.
 Step number   3 out of a maximum of   20
 All quantities printed in internal units (Hartrees-Bohrs-Radians)
 RMS Force = .34823D-05 SwitMx=.10000D-02 MixMth= 2
 Mixed Optimization -- En-DIIS/RFO-DIIS
 Update second derivatives using D2CorX and points    2    3
 DE= -8.78D-06 DEPred=-7.95D-06 R= 1.10D+00
 TightC=F SS=  1.41D+00  RLast= 6.44D-03 DXNew= 5.0454D-01 1.9329D-02
 Trust test= 1.10D+00 RLast= 6.44D-03 DXMaxT set to 3.00D-01
 The second derivative matrix:
                          R1
           R1           0.42506
 ITU=  1  1
 Use linear search instead of GDIIS.
     Eigenvalues ---    0.42506
 RFO step:  Lambda= 0.00000000D+00 EMin= 4.25063827D-01
 Quartic linear search produced a step of -0.00128.
 Iteration  1 RMS(Cart)=  0.00000584 RMS(Int)=  0.00000000
 Iteration  2 RMS(Cart)=  0.00000000 RMS(Int)=  0.00000000
 ITry= 1 IFail=0 DXMaxC= 4.13D-06 DCOld= 1.00D+10 DXMaxT= 3.00D-01 DXLimC= 3.00D+00 Rises=F
 ClnCor:  largest displacement from symmetrization is 0.00D+00 for atom     0.
 Variable       Old X    -DE/DX   Delta X   Delta X   Delta X     New X
                                 (Linear)    (Quad)   (Total)
    R1        2.48186   0.00000  -0.00001   0.00000  -0.00001   2.48185
         Item               Value     Threshold  Converged?
 Maximum Force            0.000003     0.000015     YES
 RMS     Force            0.000003     0.000010     YES
 Maximum Displacement     0.000004     0.000060     YES
 RMS     Displacement     0.000006     0.000040     YES
 Predicted change in Energy=-1.426357D-11
 Optimization completed.
    -- Stationary point found.
                           ----------------------------
                           !   Optimized Parameters   !
                           ! (Angstroms and Degrees)  !
 --------------------------                            --------------------------
 ! Name  Definition              Value          Derivative Info.                !
 --------------------------------------------------------------------------------
 ! R1    R(1,2)                  1.3133         -DE/DX =    0.0                 !
 --------------------------------------------------------------------------------
 Lowest energy point so far.  Saving SCF results.
 Largest change from initial coordinates is atom    2       0.036 Angstoms.
 GradGradGradGradGradGradGradGradGradGradGradGradGradGradGradGradGradGrad

 Leave Link  103 at Fri Sep 05 16:45:40 2025, MaxMem=   536870912 cpu:               0.0 elap:               0.0
 (Enter C:\G16W\l202.exe)
                          Input orientation:                          
 ---------------------------------------------------------------------
 Center     Atomic      Atomic             Coordinates (Angstroms)
 Number     Number       Type             X           Y           Z
 ---------------------------------------------------------------------
      1         17           0        0.000000    0.000000   -0.019171
      2          1           0        0.000000    0.000000    1.294171
 ---------------------------------------------------------------------
 Stoichiometry    ClH
 Framework group  C*V[C*(HCl)]
 Deg. of freedom     1
 Full point group                 C*V     NOp   4
 RotChk:  IX=0 Diff= 0.00D+00
 Largest Abelian subgroup         C2V     NOp   4
 Largest concise Abelian subgroup C1      NOp   1
                         Standard orientation:                         
 ---------------------------------------------------------------------
 Center     Atomic      Atomic             Coordinates (Angstroms)
 Number     Number       Type             X           Y           Z
 ---------------------------------------------------------------------
      1         17           0        0.000000    0.000000    0.072963
      2          1           0        0.000000    0.000000   -1.240378
 ---------------------------------------------------------------------
 Rotational constants (GHZ):           0.0000000         299.0999018         299.0999018
 Leave Link  202 at Fri Sep 05 16:45:40 2025, MaxMem=   536870912 cpu:               0.0 elap:               0.0
 (Enter C:\G16W\l601.exe)
 Copying SCF densities to generalized density rwf, IOpCl= 0 IROHF=0.

 **********************************************************************

            Population analysis using the SCF Density.

 **********************************************************************

 Orbital symmetries:
       Occupied  (SG) (SG) (SG) (PI) (PI) (SG) (SG) (PI) (PI)
       Virtual   (SG)
 The electronic state is 1-SG.
 Alpha  occ. eigenvalues -- -103.71879 -10.40017  -7.84482  -7.83847  -7.83847
 Alpha  occ. eigenvalues --   -1.03426  -0.55577  -0.42021  -0.42021
 Alpha virt. eigenvalues --    0.37781
     Molecular Orbital Coefficients:
                           1         2         3         4         5
                           O         O         O         O         O
     Eigenvalues --  -103.71879 -10.40017  -7.84482  -7.83847  -7.83847
   1 1   Cl 1S          0.99450  -0.37707  -0.00485   0.00000   0.00000
   2        2S          0.01574   1.05362   0.01374   0.00000   0.00000
   3        2PX         0.00000   0.00000   0.00000   0.00000   0.99024
   4        2PY         0.00000   0.00000   0.00000   0.99024   0.00000
   5        2PZ        -0.00012  -0.01098   0.98850   0.00000   0.00000
   6        3S         -0.00183   0.04479  -0.00637   0.00000   0.00000
   7        3PX         0.00000   0.00000   0.00000   0.00000   0.03888
   8        3PY         0.00000   0.00000   0.00000   0.03888   0.00000
   9        3PZ         0.00025  -0.00585   0.04697   0.00000   0.00000
  10 2   H  1S          0.00052  -0.01027   0.01394   0.00000   0.00000
                           6         7         8         9        10
                           O         O         O         O         V
     Eigenvalues --    -1.03426  -0.55577  -0.42021  -0.42021   0.37781
   1 1   Cl 1S          0.08270   0.03015   0.00000   0.00000  -0.02472
   2        2S         -0.27410  -0.09244   0.00000   0.00000   0.06595
   3        2PX         0.00000   0.00000  -0.27678   0.00000   0.00000
   4        2PY         0.00000   0.00000   0.00000  -0.27678   0.00000
   5        2PZ         0.04037  -0.20073   0.00000   0.00000  -0.21913
   6        3S          0.92207   0.45381   0.00000   0.00000  -0.51206
   7        3PX         0.00000   0.00000   1.02746   0.00000   0.00000
   8        3PY         0.00000   0.00000   0.00000   1.02746   0.00000
   9        3PZ        -0.12330   0.67973   0.00000   0.00000   0.94599
  10 2   H  1S          0.17757  -0.50417   0.00000   0.00000   1.12771
     Density Matrix:
                           1         2         3         4         5
   1 1   Cl 1S          2.27799
   2        2S         -0.81432   2.38844
   3        2PX         0.00000   0.00000   2.11438
   4        2PY         0.00000   0.00000   0.00000   2.11438
   5        2PZ        -0.00697   0.01901   0.00000   0.00000   2.03836
   6        3S          0.14253  -0.49523   0.00000   0.00000  -0.12133
   7        3PX         0.00000   0.00000  -0.49177   0.00000   0.00000
   8        3PY         0.00000   0.00000   0.00000  -0.49177   0.00000
   9        3PZ         0.02505  -0.06911   0.00000   0.00000  -0.18986
  10 2   H  1S          0.00761  -0.02538   0.00000   0.00000   0.24452
                           6         7         8         9        10
   6        3S          2.11641
   7        3PX         0.00000   2.11438
   8        3PY         0.00000   0.00000   2.11438
   9        3PZ         0.38844   0.00000   0.00000   0.95895
  10 2   H  1S         -0.13124   0.00000   0.00000  -0.72776   0.57204
    Full Mulliken population analysis:
                           1         2         3         4         5
   1 1   Cl 1S          2.27799
   2        2S         -0.27996   2.38844
   3        2PX         0.00000   0.00000   2.11438
   4        2PY         0.00000   0.00000   0.00000   2.11438
   5        2PZ         0.00000   0.00000   0.00000   0.00000   2.03836
   6        3S          0.00189  -0.10820   0.00000   0.00000   0.00000
   7        3PX         0.00000   0.00000  -0.11438   0.00000   0.00000
   8        3PY         0.00000   0.00000   0.00000  -0.11438   0.00000
   9        3PZ         0.00000   0.00000   0.00000   0.00000  -0.04416
  10 2   H  1S          0.00006  -0.00142   0.00000   0.00000  -0.00606
                           6         7         8         9        10
   6        3S          2.11641
   7        3PX         0.00000   2.11438
   8        3PY         0.00000   0.00000   2.11438
   9        3PZ         0.00000   0.00000   0.00000   0.95895
  10 2   H  1S         -0.05307   0.00000   0.00000   0.31483   0.57204
     Gross orbital populations:
                           1
   1 1   Cl 1S          1.99997
   2        2S          1.99886
   3        2PX         2.00000
   4        2PY         2.00000
   5        2PZ         1.98813
   6        3S          1.95703
   7        3PX         2.00000
   8        3PY         2.00000
   9        3PZ         1.22963
  10 2   H  1S          0.82638
          Condensed to atoms (all electrons):
               1          2
     1  Cl  16.919289   0.254333
     2  H    0.254333   0.572044
 Mulliken charges:
               1
     1  Cl  -0.173622
     2  H    0.173622
 Sum of Mulliken charges =   0.00000
 Mulliken charges with hydrogens summed into heavy atoms:
               1
     1  Cl   0.000000
 Electronic spatial extent (au):  <R**2>=             31.8254
 Charge=              0.0000 electrons
 Dipole moment (field-independent basis, Debye):
    X=              0.0000    Y=              0.0000    Z=             -1.7650  Tot=              1.7650
 Quadrupole moment (field-independent basis, Debye-Ang):
   XX=            -12.5630   YY=            -12.5630   ZZ=             -9.8555
   XY=              0.0000   XZ=              0.0000   YZ=              0.0000
 Traceless Quadrupole moment (field-independent basis, Debye-Ang):
   XX=             -0.9025   YY=             -0.9025   ZZ=              1.8050
   XY=              0.0000   XZ=              0.0000   YZ=              0.0000
 Octapole moment (field-independent basis, Debye-Ang**2):
  XXX=              0.0000  YYY=              0.0000  ZZZ=             -2.1497  XYY=              0.0000
  XXY=              0.0000  XXZ=             -0.1299  XZZ=              0.0000  YZZ=              0.0000
  YYZ=             -0.1299  XYZ=              0.0000
 Hexadecapole moment (field-independent basis, Debye-Ang**3):
 XXXX=            -10.4305 YYYY=            -10.4305 ZZZZ=            -12.5046 XXXY=              0.0000
 XXXZ=              0.0000 YYYX=              0.0000 YYYZ=              0.0000 ZZZX=              0.0000
 ZZZY=              0.0000 XXYY=             -3.4768 XXZZ=             -4.3871 YYZZ=             -4.3871
 XXYZ=              0.0000 YYXZ=              0.0000 ZZXY=              0.0000
 N-N= 6.849712211998D+00 E-N=-1.090902871066D+03  KE= 4.470737674438D+02
 Symmetry A1   KE= 3.610730120877D+02
 Symmetry A2   KE= 0.000000000000D+00
 Symmetry B1   KE= 4.300037767804D+01
 Symmetry B2   KE= 4.300037767804D+01
 Orbital energies and kinetic energies (alpha):
                                 1                 2
   1         O              -103.718792        131.982144
   2         O               -10.400174         25.657159
   3         O                -7.844822         19.185526
   4         O                -7.838469         19.238987
   5         O                -7.838469         19.238987
   6         O                -1.034255          2.025606
   7         O                -0.555770          1.686070
   8         O                -0.420211          2.261202
   9         O                -0.420211          2.261202
  10         V                 0.377805          2.380619
 Total kinetic energy from orbitals= 4.470737674438D+02
 No NMR shielding tensors so no spin-rotation constants.
 Leave Link  601 at Fri Sep 05 16:45:40 2025, MaxMem=   536870912 cpu:               0.0 elap:               0.0
 (Enter C:\G16W\l9999.exe)
 B after Tr=     0.000000    0.000000    0.032202
         Rot=    1.000000    0.000000    0.000000    0.000000 Ang=   0.00 deg.
 Final structure in terms of initial Z-matrix:
 Cl
 H,1,B1
      Variables:
 B1=1.31334169
 1|1|UNPC-DESKTOP-SI45VP7|FOpt|RHF|STO-3G|Cl1H1|DOG OF ROMAN|05-Sep-202
 5|0||#p hf/sto-3g opt=(tight,calcfc) freq scf=tight pop=full||Calculat
 ion of the ground state energy with STO-3G basis set||0,1|Cl,0.,0.,-0.
 019170843|H,0.,0.,1.294170843||Version=EM64W-G16RevB.01|State=1-SG|HF=
 -455.1360117|RMSD=4.166e-010|RMSF=2.011e-006|Dipole=0.,0.,0.6944133|Qu
 adrupole=-0.6709809,-0.6709809,1.3419617,0.,0.,0.|PG=C*V [C*(H1Cl1)]||
 @


 QUHEN THE CAUSS IS TAKEN AWAY THE EFFECT WANISHETH.
 -- PROVERBS AND REASONS OF THE YEAR 1585
           AS REPRINTED IN PAISLEY MAGAZINE 1828.
 Leave Link 9999 at Fri Sep 05 16:45:40 2025, MaxMem=   536870912 cpu:               0.0 elap:               0.0
 Job cpu time:       0 days  0 hours  0 minutes  5.0 seconds.
 Elapsed time:       0 days  0 hours  0 minutes  1.3 seconds.
 File lengths (MBytes):  RWF=      6 Int=      0 D2E=      0 Chk=      2 Scr=      1
 Normal termination of Gaussian 16 at Fri Sep 05 16:45:40 2025.
 (Enter C:\G16W\l1.exe)
 Link1:  Proceeding to internal job step number  2.
 ---------------------------------------------------------------
 #P Geom=AllCheck Guess=TCheck SCRF=Check GenChk RHF/STO-3G Freq
 ---------------------------------------------------------------
 1/7=10,10=4,29=7,30=1,38=1,40=1/1,3;
 2/12=2,40=1/2;
 3/6=3,11=1,14=-4,25=1,30=1,70=2,71=2,116=1,140=1/1,2,3;
 4/5=101/1;
 5/5=2,32=2,38=6,98=1/2;
 8/6=4,10=90,11=11/1;
 10/13=10,15=4/2;
 11/6=3,8=1,9=11,15=111,16=1/1,2,10;
 10/6=1/2;
 6/7=3,28=1/1;
 7/8=1,10=1,25=1/1,2,3,16;
 1/7=10,10=4,30=1/3;
 99//99;
 Leave Link    1 at Fri Sep 05 16:45:40 2025, MaxMem=   536870912 cpu:               0.0 elap:               0.0
 (Enter C:\G16W\l101.exe)
 Structure from the checkpoint file:  "HCl.chk"
 ------------------------------------------------------------
 Calculation of the ground state energy with STO-3G basis set
 ------------------------------------------------------------
 Charge =  0 Multiplicity = 1
 Redundant internal coordinates found in file.  (old form).
 Cl,0,0.,0.,-0.019170843
 H,0,0.,0.,1.294170843
 Recover connectivity data from disk.
 ITRead=  0  0
 MicOpt= -1 -1
 NAtoms=      2 NQM=        2 NQMF=       0 NMMI=      0 NMMIF=      0
                NMic=       0 NMicF=      0.
                    Isotopes and Nuclear Properties:
 (Nuclear quadrupole moments (NQMom) in fm**2, nuclear magnetic moments (NMagM)
  in nuclear magnetons)

  Atom         1           2
 IAtWgt=          35           1
 AtmWgt=  34.9688527   1.0078250
 NucSpn=           3           1
 AtZEff=  14.2400000   1.0000000
 NQMom=   -8.1650000   0.0000000
 NMagM=    0.8218740   2.7928460
 AtZNuc=  17.0000000   1.0000000
 Leave Link  101 at Fri Sep 05 16:45:40 2025, MaxMem=   536870912 cpu:               0.0 elap:               0.1
 (Enter C:\G16W\l103.exe)

 GradGradGradGradGradGradGradGradGradGradGradGradGradGradGradGradGradGrad
 Berny optimization.
 Initialization pass.
                           ----------------------------
                           !    Initial Parameters    !
                           ! (Angstroms and Degrees)  !
 --------------------------                            --------------------------
 ! Name  Definition              Value          Derivative Info.                !
 --------------------------------------------------------------------------------
 ! R1    R(1,2)                  1.3133         calculate D2E/DX2 analytically  !
 --------------------------------------------------------------------------------
 Trust Radius=3.00D-01 FncErr=1.00D-07 GrdErr=1.00D-07 EigMax=2.50D+02 EigMin=1.00D-04
 Number of steps in this run=      2 maximum allowed number of steps=      2.
 GradGradGradGradGradGradGradGradGradGradGradGradGradGradGradGradGradGrad

 Leave Link  103 at Fri Sep 05 16:45:40 2025, MaxMem=   536870912 cpu:               0.0 elap:               0.0
 (Enter C:\G16W\l202.exe)
                          Input orientation:                          
 ---------------------------------------------------------------------
 Center     Atomic      Atomic             Coordinates (Angstroms)
 Number     Number       Type             X           Y           Z
 ---------------------------------------------------------------------
      1         17           0        0.000000    0.000000   -0.019171
      2          1           0        0.000000    0.000000    1.294171
 ---------------------------------------------------------------------
 Stoichiometry    ClH
 Framework group  C*V[C*(HCl)]
 Deg. of freedom     1
 Full point group                 C*V     NOp   4
 RotChk:  IX=0 Diff= 0.00D+00
 Largest Abelian subgroup         C2V     NOp   4
 Largest concise Abelian subgroup C1      NOp   1
                         Standard orientation:                         
 ---------------------------------------------------------------------
 Center     Atomic      Atomic             Coordinates (Angstroms)
 Number     Number       Type             X           Y           Z
 ---------------------------------------------------------------------
      1         17           0        0.000000    0.000000    0.072963
      2          1           0        0.000000    0.000000   -1.240378
 ---------------------------------------------------------------------
 Rotational constants (GHZ):           0.0000000         299.0999018         299.0999018
 Leave Link  202 at Fri Sep 05 16:45:40 2025, MaxMem=   536870912 cpu:               0.0 elap:               0.0
 (Enter C:\G16W\l301.exe)
 Standard basis: STO-3G (5D, 7F)
 Ernie: Thresh=  0.10000D-02 Tol=  0.10000D-05 Strict=F.
 There are     6 symmetry adapted cartesian basis functions of A1  symmetry.
 There are     0 symmetry adapted cartesian basis functions of A2  symmetry.
 There are     2 symmetry adapted cartesian basis functions of B1  symmetry.
 There are     2 symmetry adapted cartesian basis functions of B2  symmetry.
 There are     6 symmetry adapted basis functions of A1  symmetry.
 There are     0 symmetry adapted basis functions of A2  symmetry.
 There are     2 symmetry adapted basis functions of B1  symmetry.
 There are     2 symmetry adapted basis functions of B2  symmetry.
    10 basis functions,    30 primitive gaussians,    10 cartesian basis functions
     9 alpha electrons        9 beta electrons
       nuclear repulsion energy         6.8497122120 Hartrees.
 IExCor=    0 DFT=F Ex=HF Corr=None ExCW=0 ScaHFX=  1.000000
 ScaDFX=  1.000000  1.000000  1.000000  1.000000 ScalE2=  1.000000  1.000000
 IRadAn=      5 IRanWt=     -1 IRanGd=            0 ICorTp=0 IEmpDi=  4
 NAtoms=    2 NActive=    2 NUniq=    2 SFac= 1.00D+00 NAtFMM=   60 NAOKFM=F Big=F
 Integral buffers will be    131072 words long.
 Raffenetti 1 integral format.
 Two-electron integral symmetry is turned on.
 Leave Link  301 at Fri Sep 05 16:45:40 2025, MaxMem=   536870912 cpu:               0.0 elap:               0.0
 (Enter C:\G16W\l302.exe)
 NPDir=0 NMtPBC=     1 NCelOv=     1 NCel=       1 NClECP=     1 NCelD=      1
         NCelK=      1 NCelE2=     1 NClLst=     1 CellRange=     0.0.
 One-electron integrals computed using PRISM.
 One-electron integral symmetry used in STVInt
 NBasis=    10 RedAO= T EigKep=  3.79D-01  NBF=     6     0     2     2
 NBsUse=    10 1.00D-06 EigRej= -1.00D+00 NBFU=     6     0     2     2
 Leave Link  302 at Fri Sep 05 16:45:40 2025, MaxMem=   536870912 cpu:               0.0 elap:               0.0
 (Enter C:\G16W\l303.exe)
 DipDrv:  MaxL=1.
 Leave Link  303 at Fri Sep 05 16:45:40 2025, MaxMem=   536870912 cpu:               0.0 elap:               0.0
 (Enter C:\G16W\l401.exe)
 Initial guess from the checkpoint file:  "HCl.chk"
 B after Tr=     0.000000    0.000000    0.000000
         Rot=    1.000000    0.000000    0.000000    0.000000 Ang=   0.00 deg.
 Guess basis will be translated and rotated to current coordinates.
 JPrj=2 DoOrth=T DoCkMO=T.
 Initial guess orbital symmetries:
       Occupied  (SG) (SG) (SG) (PI) (PI) (SG) (SG) (PI) (PI)
       Virtual   (SG)
 The electronic state of the initial guess is 1-SG.
 Leave Link  401 at Fri Sep 05 16:45:40 2025, MaxMem=   536870912 cpu:               0.0 elap:               0.0
 (Enter C:\G16W\l502.exe)
 Keep R1 ints in memory in symmetry-blocked form, NReq=804496.
 FoFCou: FMM=F IPFlag=           0 FMFlag=           0 FMFlg1=           0
         NFxFlg=           0 DoJE=F BraDBF=F KetDBF=F FulRan=T
         wScrn=  0.000000 ICntrl=       600 IOpCl=  0 I1Cent=           0 NGrid=           0
         NMat0=    1 NMatS0=     55 NMatT0=    0 NMatD0=    1 NMtDS0=    0 NMtDT0=    0
 Petite list used in FoFCou.
 Closed shell SCF:
 Using DIIS extrapolation, IDIIS=  1040.
 NGot=   536870912 LenX=   536868482 LenY=   536867600
 Requested convergence on RMS density matrix=1.00D-08 within 128 cycles.
 Requested convergence on MAX density matrix=1.00D-06.
 Requested convergence on             energy=1.00D-06.
 No special actions if energy rises.

 Cycle   1  Pass 1  IDiag  1:
 E= -455.136011655083    
 DIIS: error= 1.03D-11 at cycle   1 NSaved=   1.
 NSaved= 1 IEnMin= 1 EnMin= -455.136011655083     IErMin= 1 ErrMin= 1.03D-11
 ErrMax= 1.03D-11  0.00D+00 EMaxC= 1.00D-01 BMatC= 1.55D-21 BMatP= 1.55D-21
 IDIUse=1 WtCom= 1.00D+00 WtEn= 0.00D+00
 Coeff-Com:  0.100D+01
 Coeff:      0.100D+01
 Gap=     0.798 Goal=   None    Shift=    0.000
 Skip diagonalization as Alpha Fock matrix is already diagonal.
 RMSDP=0.00D+00 MaxDP=0.00D+00              OVMax= 0.00D+00

 SCF Done:  E(RHF) =  -455.136011655     A.U. after    1 cycles
            NFock=  1  Conv=0.00D+00     -V/T= 2.0180
 KE= 4.470737674438D+02 PE=-1.090902871066D+03 EE= 1.818433797549D+02
 Leave Link  502 at Fri Sep 05 16:45:40 2025, MaxMem=   536870912 cpu:               0.0 elap:               0.0
 (Enter C:\G16W\l801.exe)
 Range of M.O.s used for correlation:     1    10
 NBasis=    10 NAE=     9 NBE=     9 NFC=     0 NFV=     0
 NROrb=     10 NOA=     9 NOB=     9 NVA=     1 NVB=     1
 Leave Link  801 at Fri Sep 05 16:45:40 2025, MaxMem=   536870912 cpu:               0.0 elap:               0.0
 (Enter C:\G16W\l1002.exe)
 Minotr:  Closed shell wavefunction.
          Direct CPHF calculation.
          Differentiating once with respect to electric field.
                with respect to dipole field.
          Electric field/nuclear overlap derivatives assumed to be zero.
          Using symmetry in CPHF.
          Requested convergence is 1.0D-08 RMS, and 1.0D-07 maximum.
          Secondary convergence is 1.0D-12 RMS, and 1.0D-12 maximum.
          NewPWx=F KeepS1=T KeepF1=T KeepIn=T MapXYZ=F SortEE=F KeepMc=T.
 Keep R1 ints in memory in symmetry-blocked form, NReq=804858.
 FoFCou: FMM=F IPFlag=           0 FMFlag=           0 FMFlg1=           0
         NFxFlg=           0 DoJE=F BraDBF=F KetDBF=F FulRan=T
         wScrn=  0.000000 ICntrl=       600 IOpCl=  0 I1Cent=           0 NGrid=           0
         NMat0=    1 NMatS0=     55 NMatT0=    0 NMatD0=    1 NMtDS0=    0 NMtDT0=    0
 Petite list used in FoFCou.
          MDV=     536870912 using IRadAn=       1.
          Solving linear equations simultaneously, MaxMat=       0.
          There are     3 degrees of freedom in the 1st order CPHF.  IDoFFX=0 NUNeed=     3.
      3 vectors produced by pass  0 Test12= 3.00D-16 3.33D-08 XBig12= 1.98D+00 1.40D+00.
 AX will form     3 AO Fock derivatives at one time.
      3 vectors produced by pass  1 Test12= 3.00D-16 3.33D-08 XBig12= 4.34D-04 2.05D-02.
      1 vectors produced by pass  2 Test12= 3.00D-16 3.33D-08 XBig12= 2.50D-07 4.33D-04.
      1 vectors produced by pass  3 Test12= 3.00D-16 3.33D-08 XBig12= 5.17D-12 1.98D-06.
 InvSVY:  IOpt=1 It=  1 EMax= 8.24D-18
 Solved reduced A of dimension     8 with     3 vectors.
 End of Minotr F.D. properties file   721 does not exist.
 End of Minotr F.D. properties file   722 does not exist.
 End of Minotr F.D. properties file   788 does not exist.
[...]
   5        2PZ         0.00000   0.00000   0.00000   0.00000   2.03836
   6        3S          0.00189  -0.10820   0.00000   0.00000   0.00000
   7        3PX         0.00000   0.00000  -0.11438   0.00000   0.00000
   8        3PY         0.00000   0.00000   0.00000  -0.11438   0.00000
   9        3PZ         0.00000   0.00000   0.00000   0.00000  -0.04416
  10 2   H  1S          0.00006  -0.00142   0.00000   0.00000  -0.00606
                           6         7         8         9        10
   6        3S          2.11641
   7        3PX         0.00000   2.11438
   8        3PY         0.00000   0.00000   2.11438
   9        3PZ         0.00000   0.00000   0.00000   0.95895
  10 2   H  1S         -0.05307   0.00000   0.00000   0.31483   0.57204
     Gross orbital populations:
                           1
   1 1   Cl 1S          1.99997
   2        2S          1.99886
   3        2PX         2.00000
   4        2PY         2.00000
   5        2PZ         1.98813
   6        3S          1.95703
   7        3PX         2.00000
   8        3PY         2.00000
   9        3PZ         1.22963
  10 2   H  1S          0.82638
          Condensed to atoms (all electrons):
               1          2
     1  Cl  16.919289   0.254333
     2  H    0.254333   0.572044
 Mulliken charges:
               1
     1  Cl  -0.173622
     2  H    0.173622
 Sum of Mulliken charges =   0.00000
 Mulliken charges with hydrogens summed into heavy atoms:
               1
     1  Cl   0.000000
 APT charges:
               1
     1  Cl  -0.242330
     2  H    0.242330
 Sum of APT charges =   0.00000
 APT charges with hydrogens summed into heavy atoms:
               1
     1  Cl   0.000000
 Electronic spatial extent (au):  <R**2>=             31.8254
 Charge=              0.0000 electrons
 Dipole moment (field-independent basis, Debye):
    X=              0.0000    Y=              0.0000    Z=             -1.7650  Tot=              1.7650
 Quadrupole moment (field-independent basis, Debye-Ang):
   XX=            -12.5630   YY=            -12.5630   ZZ=             -9.8555
   XY=              0.0000   XZ=              0.0000   YZ=              0.0000
 Traceless Quadrupole moment (field-independent basis, Debye-Ang):
   XX=             -0.9025   YY=             -0.9025   ZZ=              1.8050
   XY=              0.0000   XZ=              0.0000   YZ=              0.0000
 Octapole moment (field-independent basis, Debye-Ang**2):
  XXX=              0.0000  YYY=              0.0000  ZZZ=             -2.1497  XYY=              0.0000
  XXY=              0.0000  XXZ=             -0.1299  XZZ=              0.0000  YZZ=              0.0000
  YYZ=             -0.1299  XYZ=              0.0000
 Hexadecapole moment (field-independent basis, Debye-Ang**3):
 XXXX=            -10.4305 YYYY=            -10.4305 ZZZZ=            -12.5046 XXXY=              0.0000
 XXXZ=              0.0000 YYYX=              0.0000 YYYZ=              0.0000 ZZZX=              0.0000
 ZZZY=              0.0000 XXYY=             -3.4768 XXZZ=             -4.3871 YYZZ=             -4.3871
 XXYZ=              0.0000 YYXZ=              0.0000 ZZXY=              0.0000
 N-N= 6.849712211998D+00 E-N=-1.090902871066D+03  KE= 4.470737674438D+02
 Symmetry A1   KE= 3.610730120877D+02
 Symmetry A2   KE= 0.000000000000D+00
 Symmetry B1   KE= 4.300037767804D+01
 Symmetry B2   KE= 4.300037767804D+01
 Orbital energies and kinetic energies (alpha):
                                 1                 2
   1         O              -103.718792        131.982144
   2         O               -10.400174         25.657159
   3         O                -7.844822         19.185526
   4         O                -7.838469         19.238987
   5         O                -7.838469         19.238987
   6         O                -1.034255          2.025606
   7         O                -0.555770          1.686070
   8         O                -0.420211          2.261202
   9         O                -0.420211          2.261202
  10         V                 0.377805          2.380619
 Total kinetic energy from orbitals= 4.470737674438D+02
  Exact polarizability:   0.213   0.000   0.213   0.000   0.000   8.054
 Approx polarizability:   0.119   0.000   0.119   0.000   0.000   7.402
 No NMR shielding tensors so no spin-rotation constants.
 Leave Link  601 at Fri Sep 05 16:45:41 2025, MaxMem=   536870912 cpu:               0.0 elap:               0.0
 (Enter C:\G16W\l701.exe)
 ... and contract with generalized density number  0.
 Compute integral second derivatives.
 Leave Link  701 at Fri Sep 05 16:45:41 2025, MaxMem=   536870912 cpu:               0.0 elap:               0.0
 (Enter C:\G16W\l702.exe)
 L702 exits ... SP integral derivatives will be done elsewhere.
 Leave Link  702 at Fri Sep 05 16:45:41 2025, MaxMem=   536870912 cpu:               0.0 elap:               0.0
 (Enter C:\G16W\l703.exe)
 Integral derivatives from FoFJK, PRISM(SPDF).
 Compute integral second derivatives, UseDBF=F ICtDFT=           0.
 Calling FoFJK, ICntrl=    100127 FMM=F ISym2X=1 I1Cent= 0 IOpClX= 0 NMat=1 NMatS=1 NMatT=0.
 FoFJK:  IHMeth= 1 ICntrl=  100127 DoSepK=F KAlg= 0 I1Cent=           0 FoldK=F
 IRaf=         0 NMat=       1 IRICut=       1 DoRegI=T DoRafI=F ISym2E= 1 IDoP0=0 IntGTp=1.
 FoFCou: FMM=F IPFlag=           0 FMFlag=      100000 FMFlg1=         800
         NFxFlg=           0 DoJE=F BraDBF=F KetDBF=F FulRan=T
         wScrn=  0.000000 ICntrl=    100127 IOpCl=  0 I1Cent=           0 NGrid=           0
         NMat0=    1 NMatS0=      1 NMatT0=    0 NMatD0=    1 NMtDS0=    0 NMtDT0=    0
 Petite list used in FoFCou.
 Leave Link  703 at Fri Sep 05 16:45:41 2025, MaxMem=   536870912 cpu:               0.0 elap:               0.1
 (Enter C:\G16W\l716.exe)
 Dipole        = 0.00000000D+00 0.00000000D+00-6.94413265D-01
 Polarizability= 2.12689554D-01 0.00000000D+00 2.12689554D-01
                 0.00000000D+00 0.00000000D+00 8.05356389D+00
 HyperPolar    = 0.00000000D+00 0.00000000D+00 0.00000000D+00
                 0.00000000D+00 5.23821335D-01 0.00000000D+00
                 5.23821335D-01 0.00000000D+00 0.00000000D+00
                -2.35294193D+01
 Full mass-weighted force constant matrix:
 Low frequencies ---   -0.0016   -0.0012   -0.0012    6.1522    6.1522 3372.4814
 Diagonal vibrational polarizability:
        0.0000000       0.0000000       0.0659833
 Diagonal vibrational hyperpolarizability:
        0.0000000       0.0000000      -3.0914316
 Harmonic frequencies (cm**-1), IR intensities (KM/Mole), Raman scattering
 activities (A**4/AMU), depolarization ratios for plane and unpolarized
 incident light, reduced masses (AMU), force constants (mDyne/A),
 and normal coordinates:
                      1
                     SG
 Frequencies --   3372.4814
 Red. masses --      1.0360
 Frc consts  --      6.9425
 IR Inten    --     27.8869
 Raman Activ --     58.7265
 Depolar (P) --      0.3478
 Depolar (U) --      0.5162
  Atom  AN      X      Y      Z
     1  17     0.00   0.00  -0.03
     2   1     0.00   0.00   1.00

 -------------------
 - Thermochemistry -
 -------------------
 Temperature   298.150 Kelvin.  Pressure   1.00000 Atm.
 Atom     1 has atomic number 17 and mass  34.96885
 Atom     2 has atomic number  1 and mass   1.00783
 Molecular mass:    35.97668 amu.
 Principal axes and moments of inertia in atomic units:
                           1         2         3
     Eigenvalues --     0.00000   6.03391   6.03391
           X            0.00000   0.00000   1.00000
           Y            0.00000   1.00000   0.00000
           Z            1.00000   0.00000   0.00000
 This molecule is a prolate symmetric top.
 Rotational symmetry number  1.
 Rotational temperature (Kelvin)     14.35453
 Rotational constant (GHZ):         299.099902
 Zero-point vibrational energy      20171.9 (Joules/Mol)
                                    4.82120 (Kcal/Mol)
 Vibrational temperatures:   4852.25
          (Kelvin)
 
 Zero-point correction=                           0.007683 (Hartree/Particle)
 Thermal correction to Energy=                    0.010044
 Thermal correction to Enthalpy=                  0.010988
 Thermal correction to Gibbs Free Energy=        -0.010244
 Sum of electronic and zero-point Energies=           -455.128329
 Sum of electronic and thermal Energies=              -455.125968
 Sum of electronic and thermal Enthalpies=            -455.125024
 Sum of electronic and thermal Free Energies=         -455.146256
 
                     E (Thermal)             CV                S
                      KCal/Mol        Cal/Mol-Kelvin    Cal/Mol-Kelvin
 Total                    6.302              4.968             44.686
 Electronic               0.000              0.000              0.000
 Translational            0.889              2.981             36.671
 Rotational               0.592              1.987              8.015
 Vibrational              4.821              0.000              0.000
                       Q            Log10(Q)             Ln(Q)
 Total Bot       0.515186D+05          4.711964         10.849698
 Total V=0       0.176170D+09          8.245931         18.986958
 Vib (Bot)       0.292437D-03         -3.533967         -8.137261
 Vib (V=0)       0.100000D+01          0.000000          0.000000
 Electronic      0.100000D+01          0.000000          0.000000
 Translational   0.848175D+07          6.928485         15.953427
 Rotational      0.207704D+02          1.317446          3.033531
 ***** Axes restored to original set *****
 -------------------------------------------------------------------
 Center     Atomic                   Forces (Hartrees/Bohr)
 Number     Number              X              Y              Z
 -------------------------------------------------------------------
      1       17           0.000000000    0.000000000    0.000003482
      2        1           0.000000000    0.000000000   -0.000003482
 -------------------------------------------------------------------
 Cartesian Forces:  Max     0.000003482 RMS     0.000002011
 Force constants in Cartesian coordinates: 
                1             2             3             4             5 
      1  0.140313D-05
      2  0.000000D+00  0.140313D-05
      3  0.000000D+00  0.000000D+00  0.421634D+00
      4 -0.140313D-05  0.000000D+00  0.000000D+00  0.140313D-05
      5  0.000000D+00 -0.140313D-05  0.000000D+00  0.000000D+00  0.140313D-05
      6  0.000000D+00  0.000000D+00 -0.421634D+00  0.000000D+00  0.000000D+00
                6 
      6  0.421634D+00
 FormGI is forming the generalized inverse of G from B-inverse, IUseBI=4.
 Force constants in internal coordinates: 
                1 
      1  0.421634D+00
 Leave Link  716 at Fri Sep 05 16:45:41 2025, MaxMem=   536870912 cpu:               0.0 elap:               0.0
 (Enter C:\G16W\l103.exe)

 GradGradGradGradGradGradGradGradGradGradGradGradGradGradGradGradGradGrad
 Berny optimization.
 Red2BG is reusing G-inverse.
 Internal  Forces:  Max     0.000003482 RMS     0.000003482
 Search for a local minimum.
 Step number   1 out of a maximum of    2
 All quantities printed in internal units (Hartrees-Bohrs-Radians)
 Second derivative matrix not updated -- analytic derivatives used.
 The second derivative matrix:
                          R1
           R1           0.42163
 ITU=  0
     Eigenvalues ---    0.42163
 Angle between quadratic step and forces=   0.00 degrees.
 Linear search not attempted -- first point.
 Iteration  1 RMS(Cart)=  0.00000584 RMS(Int)=  0.00000000
 Iteration  2 RMS(Cart)=  0.00000000 RMS(Int)=  0.00000000
 ITry= 1 IFail=0 DXMaxC= 4.13D-06 DCOld= 1.00D+10 DXMaxT= 3.00D-01 DXLimC= 3.00D+00 Rises=F
 ClnCor:  largest displacement from symmetrization is 0.00D+00 for atom     0.
 Variable       Old X    -DE/DX   Delta X   Delta X   Delta X     New X
                                 (Linear)    (Quad)   (Total)
    R1        2.48186   0.00000   0.00000  -0.00001  -0.00001   2.48185
         Item               Value     Threshold  Converged?
 Maximum Force            0.000003     0.000015     YES
 RMS     Force            0.000003     0.000010     YES
 Maximum Displacement     0.000004     0.000060     YES
 RMS     Displacement     0.000006     0.000040     YES
 Predicted change in Energy=-1.438099D-11
 Optimization completed.
    -- Stationary point found.
                           ----------------------------
                           !   Optimized Parameters   !
                           ! (Angstroms and Degrees)  !
 --------------------------                            --------------------------
 ! Name  Definition              Value          Derivative Info.                !
 --------------------------------------------------------------------------------
 ! R1    R(1,2)                  1.3133         -DE/DX =    0.0                 !
 --------------------------------------------------------------------------------
 GradGradGradGradGradGradGradGradGradGradGradGradGradGradGradGradGradGrad

 Leave Link  103 at Fri Sep 05 16:45:41 2025, MaxMem=   536870912 cpu:               0.0 elap:               0.0
 (Enter C:\G16W\l9999.exe)

 ----------------------------------------------------------------------

 Electric dipole moment (input orientation):
 (Debye = 10**-18 statcoulomb cm , SI units = C m)
                  (au)            (Debye)         (10**-30 SI)
   Tot        0.694413D+00      0.176502D+01      0.588748D+01
   x          0.000000D+00      0.000000D+00      0.000000D+00
   y          0.000000D+00      0.000000D+00      0.000000D+00
   z          0.694413D+00      0.176502D+01      0.588748D+01

 Dipole polarizability, Alpha (input orientation).
 (esu units = cm**3 , SI units = C**2 m**2 J**-1)
 Alpha(0;0):
               (au)            (10**-24 esu)      (10**-40 SI)
   iso        0.282631D+01      0.418817D+00      0.465996D+00
   aniso      0.784087D+01      0.116190D+01      0.129279D+01
   xx         0.212690D+00      0.315173D-01      0.350678D-01
   yx         0.000000D+00      0.000000D+00      0.000000D+00
   yy         0.212690D+00      0.315173D-01      0.350678D-01
   zx         0.000000D+00      0.000000D+00      0.000000D+00
   zy         0.000000D+00      0.000000D+00      0.000000D+00
   zz         0.805356D+01      0.119342D+01      0.132785D+01

 First dipole hyperpolarizability, Beta (input orientation).
 ||, _|_  parallel and perpendicular components, (z) with respect to z axis,
 vector components x,y,z.  Values do not include the 1/n! factor of 1/2.
 (esu units = statvolt**-1 cm**4 , SI units = C**3 m**3 J**-2)
 Beta(0;0,0):
               (au)            (10**-30 esu)      (10**-50 SI)
   || (z)     0.134891D+02      0.116535D+00      0.432508D-01
   _|_(z)     0.449636D+01      0.388450D-01      0.144169D-01
   x          0.000000D+00      0.000000D+00      0.000000D+00
   y          0.000000D+00      0.000000D+00      0.000000D+00
   z          0.674453D+02      0.582675D+00      0.216254D+00
   ||         0.134891D+02      0.116535D+00      0.432508D-01
   xxx        0.000000D+00      0.000000D+00      0.000000D+00
   xxy        0.000000D+00      0.000000D+00      0.000000D+00
   yxy        0.000000D+00      0.000000D+00      0.000000D+00
   yyy        0.000000D+00      0.000000D+00      0.000000D+00
   xxz       -0.523821D+00     -0.452541D-02     -0.167956D-02
   yxz        0.000000D+00      0.000000D+00      0.000000D+00
   yyz       -0.523821D+00     -0.452541D-02     -0.167956D-02
   zxz        0.000000D+00      0.000000D+00      0.000000D+00
   zyz        0.000000D+00      0.000000D+00      0.000000D+00
   zzz        0.235294D+02      0.203276D+00      0.754438D-01

 ----------------------------------------------------------------------

 Dipole orientation:
    17          0.00000000          0.00000000         -0.03622764
     1          0.00000000          0.00000000          2.44562845

 Electric dipole moment (dipole orientation):
 (Debye = 10**-18 statcoulomb cm , SI units = C m)
                  (au)            (Debye)         (10**-30 SI)
   Tot        0.694413D+00      0.176502D+01      0.588748D+01
   x          0.000000D+00      0.000000D+00      0.000000D+00
   y          0.000000D+00      0.000000D+00      0.000000D+00
   z          0.694413D+00      0.176502D+01      0.588748D+01

 Dipole polarizability, Alpha (dipole orientation).
 (esu units = cm**3 , SI units = C**2 m**2 J**-1)
 Alpha(0;0):
               (au)            (10**-24 esu)      (10**-40 SI)
   iso        0.282631D+01      0.418817D+00      0.465996D+00
   aniso      0.784087D+01      0.116190D+01      0.129279D+01
   xx         0.212690D+00      0.315173D-01      0.350678D-01
   yx         0.000000D+00      0.000000D+00      0.000000D+00
   yy         0.212690D+00      0.315173D-01      0.350678D-01
   zx         0.000000D+00      0.000000D+00      0.000000D+00
   zy         0.000000D+00      0.000000D+00      0.000000D+00
   zz         0.805356D+01      0.119342D+01      0.132785D+01

 First dipole hyperpolarizability, Beta (dipole orientation).
 ||, _|_  parallel and perpendicular components, (z) with respect to z axis,
 vector components x,y,z.  Values do not include the 1/n! factor of 1/2.
 (esu units = statvolt**-1 cm**4 , SI units = C**3 m**3 J**-2)
 Beta(0;0,0):
               (au)            (10**-30 esu)      (10**-50 SI)
   || (z)     0.134891D+02      0.116535D+00      0.432508D-01
   _|_(z)     0.449636D+01      0.388450D-01      0.144169D-01
   x          0.000000D+00      0.000000D+00      0.000000D+00
   y          0.000000D+00      0.000000D+00      0.000000D+00
   z          0.674453D+02      0.582675D+00      0.216254D+00
   ||         0.134891D+02      0.116535D+00      0.432508D-01
   xxx        0.000000D+00      0.000000D+00      0.000000D+00
   xxy        0.000000D+00      0.000000D+00      0.000000D+00
   yxy        0.000000D+00      0.000000D+00      0.000000D+00
   yyy        0.000000D+00      0.000000D+00      0.000000D+00
   xxz       -0.523821D+00     -0.452541D-02     -0.167956D-02
   yxz        0.000000D+00      0.000000D+00      0.000000D+00
   yyz       -0.523821D+00     -0.452541D-02     -0.167956D-02
   zxz        0.000000D+00      0.000000D+00      0.000000D+00
   zyz        0.000000D+00      0.000000D+00      0.000000D+00
   zzz        0.235294D+02      0.203276D+00      0.754438D-01

 ----------------------------------------------------------------------
 1|1|UNPC-DESKTOP-SI45VP7|Freq|RHF|STO-3G|Cl1H1|DOG OF ROMAN|05-Sep-202
 5|0||#P Geom=AllCheck Guess=TCheck SCRF=Check GenChk RHF/STO-3G Freq||
 Calculation of the ground state energy with STO-3G basis set||0,1|Cl,0
 .,0.,-0.019170843|H,0.,0.,1.294170843||Version=EM64W-G16RevB.01|State=
 1-SG|HF=-455.1360117|RMSD=0.000e+000|RMSF=2.011e-006|ZeroPoint=0.00768
 31|Thermal=0.0100435|Dipole=0.,0.,0.6944133|DipoleDeriv=-0.2797959,0.,
 0.,0.,-0.2797959,0.,0.,0.,-0.1673967,0.2797959,0.,0.,0.,0.2797959,0.,0
 .,0.,0.1673967|Polar=0.2126896,0.,0.2126896,0.,0.,8.0535639|PolarDeriv
 =0.,0.,0.,-3.1592784,0.,0.,0.,0.,0.,0.,-3.1592784,0.,0.1013788,0.,0.10
 13788,0.,0.,-7.8428313,0.,0.,0.,3.1592784,0.,0.,0.,0.,0.,0.,3.1592784,
 0.,-0.1013788,0.,-0.1013788,0.,0.,7.8428313|HyperPolar=0.,0.,0.,0.,-0.
 5238213,0.,-0.5238213,0.,0.,23.5294193|Quadrupole=-0.6709809,-0.670980
 9,1.3419617,0.,0.,0.|PG=C*V [C*(H1Cl1)]|NImag=0||0.00000140,0.,0.00000
 140,0.,0.,0.42163441,-0.00000140,0.,0.,0.00000140,0.,-0.00000140,0.,0.
 ,0.00000140,0.,0.,-0.42163441,0.,0.,0.42163441||0.,0.,-0.00000348,0.,0
 .,0.00000348|||@


 QUHEN THE CAUSS IS TAKEN AWAY THE EFFECT WANISHETH.
 -- PROVERBS AND REASONS OF THE YEAR 1585
           AS REPRINTED IN PAISLEY MAGAZINE 1828.
 Job cpu time:       0 days  0 hours  0 minutes  1.0 seconds.
 Elapsed time:       0 days  0 hours  0 minutes  0.7 seconds.
 File lengths (MBytes):  RWF=      6 Int=      0 D2E=      0 Chk=      2 Scr=      1
 Normal termination of Gaussian 16 at Fri Sep 05 16:45:41 2025.
