
                                 *****************
                                 * O   R   C   A *
                                 *****************

                                            #,                                       
                                            ###                                      
                                            ####                                     
                                            #####                                    
                                            ######                                   
                                           ########,                                 
                                     ,,################,,,,,                         
                               ,,#################################,,                 
                          ,,##########################################,,             
                       ,#########################################, ''#####,          
                    ,#############################################,,   '####,        
                  ,##################################################,,,,####,       
                ,###########''''           ''''###############################       
              ,#####''   ,,,,##########,,,,          '''####'''          '####       
            ,##' ,,,,###########################,,,                        '##       
           ' ,,###''''                  '''############,,,                           
         ,,##''                                '''############,,,,        ,,,,,,###''
      ,#''                                            '''#######################'''  
     '                                                          ''''####''''         
             ,#######,   #######,   ,#######,      ##                                
            ,#'     '#,  ##    ##  ,#'     '#,    #''#        ,####,    ,#,          
            ##       ##  ##   ,#'  ##            #'  '#       #'       ,# #          
            ##       ##  #######   ##           ,######,      #####,      #          
            '#,     ,#'  ##    ##  '#,     ,#' ,#      #,     #,   #      #          
             '#######'   ##     ##  '#######'  #'      '#     '####' #    #          



                #########################################################
                #                        -***-                          #
                #          Department of theory and spectroscopy        #
                #                                                       #
                #                      Frank Neese                      #
                #                                                       #
                #     Directorship, Architecture, Infrastructure        #
                #                    SHARK, DRIVERS                     #
                #        Core code/Algorithms in most modules           #
                #                                                       #
                #        Max Planck Institute fuer Kohlenforschung      #
                #                Kaiser Wilhelm Platz 1                 #
                #                 D-45470 Muelheim/Ruhr                 #
                #                      Germany                          #
                #                                                       #
                #                  All rights reserved                  #
                #                        -***-                          #
                #########################################################


                         Program Version 6.1.0  -  RELEASE   -


 With contributions from (in alphabetic order):
[Max-Planck-Institut fuer Kohlenforschung]                               
  Daniel Aravena         : Magnetic Suceptibility                        
  Michael Atanasov       : Ab Initio Ligand Field Theory (pilot matlab implementation)
  Alexander A. Auer      : GIAO ZORA, VPT2 properties, NMR spectrum      
  Ute Becker             : All parallelization in ORCA, NUMFREQ, NUMCALC 
  Giovanni Bistoni       : ED, misc. LED, open-shell LED, HFLD           
  Dmytro Bykov           : pre 5.0 version of the SCF Hessian            
  Marcos Casanova-Páez   : Triplet and SCS-CIS(D). UHF-(DLPNO)-IP/EA/STEOM-CCSD. UHF-CVS-IP/STEOM-CCSD   
  Vijay G. Chilkuri      : MRCI spin determinant printing, contributions to CSF-ICE 
  Pauline Colinet        : FMM embedding                                 
  Dipayan Datta          : RHF DLPNO-CCSD density                        
  Achintya Kumar Dutta   : EOM-CC, STEOM-CC                              
  Nicolas Foglia         : Exact transition moments, OPA infrastructure, MCD improvements    
  Dmitry Ganyushin       : Spin-Orbit,Spin-Spin,Magnetic field MRCI      
  Miquel Garcia-Rates    : C-PCM and meta-GGA Hessian, CCSD/C-PCM, Gaussian charge scheme 
  Tiago L. C. Gouveia    : GS-ROHF, GS-ROCIS                             
  Yang Guo               : DLPNO-NEVPT2, F12-NEVPT2, CIM, IAO-localization        
  Andreas Hansen         : Spin unrestricted coupled pair/coupled cluster methods 
  Ingolf Harden          : AUTO-CI MPn and infrastructure                
  Benjamin Helmich-Paris : MC-RPA, TRAH-(SCF,CASSCF), AVAS, COSX integrals, SCF dyn. polar., MC-PDFT, srDFT 
  Lee Huntington         : MR-EOM, pCC                                   
  Robert Izsak           : Overlap fitted RIJCOSX, COSX-SCS-MP3, EOM     
  Riya Kayal             : Wick's Theorem for AUTO-CI, AUTO-CI UHF-CCSDT 
  Emily Kempfer          : AUTO-CI RHF CISDT and CCSDT, approximate NEVPT4
  Christian Kollmar      : KDIIS, OOCD, Brueckner-CCSD(T), CCSD density, CASPT2, CASPT2-K, improved NEVPT2 
  Axel Koslowski         : Symmetry handling                             
  Simone Kossmann        : meta-GGA functionals, TD-DFT gradient, OOMP2, (MP2 Hessian; deprecated post 5.0) 
  Lucas Lang             : DCDCAS, Hyperfine gauge corrections, ICE-SOC+SSC
  Marvin Lechner         : AUTO-CI (C++ implementation), FIC-MRCC        
  Spencer Leger          : CASSCF response                               
  Dagmar Lenk            : GEPOL surface, SMD, ORCA-2-JSON               
  Dimitrios Liakos       : Extrapolation schemes; Compound Job, Property file
  Dimitrios Manganas     : Further ROCIS development; embedding schemes. LFT, Crystal Embedding 
  Dimitrios Pantazis     : SARC Basis sets                               
  Anastasios Papadopoulos: AUTO-CI, single reference methods and gradients 
  Taras Petrenko         : pre 6.0 DFT Hessian and TD-DFT gradient,  ECA, NRVS 
  Petra Pikulova         : Analytic Raman intensities                    
  Peter Pinski           : DLPNO-MP2, DLPNO-MP2 Gradient                 
  Shashank Vittal Rao    : ES-AILFT, MagRelax                            
  Christoph Reimann      : Effective Core Potentials                     
  Marius Retegan         : Local ZFS, SOC                                
  Christoph Riplinger    : Optimizer, TS searches, QM/MM, DLPNO-CCSD(T), (RO)-DLPNO pert. Triples 
  Michael Roemelt        : Original ROCIS implementation, recursive CI coupling coefficients
  Masaaki Saitow         : Open-shell DLPNO-CCSD energy and density      
  Barbara Sandhoefer     : DKH picture change effects                    
  Yorick L. A. Schmerwitz: GMF and freeze-and-release deltaSCF, NEB S-IDPP initial path                    
  Kantharuban Sivalingam : CASSCF convergence/infrastructure, NEVPT2, NEVPT3, NEVPT4(SD), FIC-MRCI and CEPA variants
  Bernardo de Souza      : ESD, SOC TD-DFT                               
  Georgi L. Stoychev     : AutoAux, RI-MP2 NMR, DLPNO-MP2 response, X2C  
  Van Anh Tran           : RI-MP2 g-tensors                              
  Willem Van den Heuvel  : Paramagnetic NMR                              
  Zikuan Wang            : NOTCH, Electric field optimization            
  Frank Wennmohs         : Technical directorship and infrastructure     
  Hang Xu                : AUTO-CI-Response properties                   
                                                                         
[FACCTs GmbH]                                                            
  Markus Bursch, Nicolas Foglia, Miquel Garcia-Rates, Ingolf Harden, Hagen Neugebauer, Anastasios Papadopoulos, 
  Christoph Riplinger, Bernardo de Souza, Georgi L. Stoychev                                                    
                                                                 
  APM, various basis sets, CI-OPT, improved COSX, DLPNO-Multilevel,           
  DOCKER, DRACO, updates on ESD, Fragmentator, GOAT, IRC, LR-CPCM, L-BFGS, MBIS, meta-GGA TD-DFT gradient, ML-optimized integration grids, 
  MM, NACMEs, nearIR, NEB, NEB-TS, NL-DFT gradient (VV10), 2- and 3-layer-ONIOM, interface openCOSMO-RS, QMMM,   
  Crystal-QMMM, RESP, rigid body optimization, SF, symmetry and pop. for TD-DFT, various functionals, SOLVATOR                                   
                                                                         
[Other institutions]                                                     
  V. Asgeirsson          : NEB                                           
  Christoph Bannwarth    : sTDA-DFT, sTD-DFT, PBEh-3c, B97-3c, D3        
  Giovanni Bistoni       : ETS/NOCV, ADLD/ADEX, COVALED                  
  Martin Brehm           : Molecular dynamics                            
  Ronald Cardenas        : ETS/NOCV                                      
  Martina Colucci        : COVALED                                       
  Sebastian Ehlert       : rSCAN, r2SCAN, r2SCAN-3c, D4, dhf basis sets  
  Marvin Friede          : D4 for Fr, Ra, Ac-Lr                          
  Lars Goerigk           : TD-DFT with DH, B97 family of functionals     
  Stefan Grimme          : VdW corrections, initial TS optimization, DFT functionals, gCP, sTDA/sTD-DF 
  Waldemar Hujo          : DFT-NL                                        
  H. Jonsson             : NEB                                           
  Holger Kruse           : gCP                                           
  Marcel Mueller         : wB97X-3c, vDZP basis set                      
  Hagen Neugebauer       : wr2SCAN, Native XTB                           
  Gianluca Regni         : ADLD/ADEX                                     
  Tobias Risthaus        : pre 6.0 range-separated hybrid DFT and stability analysis
  Lukas Wittmann         : regularized MP2, r2SCAN double-hybrids, wr2SCAN        
                                                                         
We gratefully acknowledge several colleagues who have allowed us to      
interface, adapt or use parts of their codes:                            
  Ed Valeev, F. Pavosevic, A. Kumar             : LibInt (2-el integral package), F12 methods 
  Garnet Chan, S. Sharma, J. Yang, R. Olivares  : DMRG                   
  Ulf Ekstrom                                   : XCFun DFT Library      
  Mihaly Kallay                                 : mrcc  (arbitrary order and MRCC methods)
  Frank Weinhold                                : gennbo (NPA and NBO analysis)           
  Simon Mueller                                 : openCOSMO-RS                            
  Christopher J. Cramer and Donald G. Truhlar   : smd solvation model                     
  S Lehtola, MJT Oliveira, MAL Marques          : LibXC Library                           
  Liviu Ungur et al                             : ANISO software                          


 Your calculation uses the libint2 library for the computation of 2-el integrals
 For citations please refer to: http://libint.valeyev.net

 Your ORCA version has been built with support for libXC version: 7.0.0
 For citations please refer to: https://libxc.gitlab.io

 This ORCA versions uses:
   CBLAS   interface :  Fast vector & matrix operations
   LAPACKE interface :  Fast linear algebra routines
   Shared memory     :  Shared parallel matrices


  ***********************************
  * Starting time: Fri Sep 12 16:25:25 2025
  * Host name:     DESKTOP-SI45VP7
  * Process ID:    11460
  * Working dir.:  C:\orca_jobs\ex2
  ***********************************

================================================================================

----- Orbital basis set information -----
Your calculation utilizes the basis: def2-TZVP
   F. Weigend and R. Ahlrichs, Phys. Chem. Chem. Phys. 7, 3297 (2005).

----- AuxJ basis set information -----
Your calculation utilizes the auxiliary basis: def2/J
   H-Rn: F. Weigend, Phys. Chem. Chem. Phys. 8, 1057 (2006).
   Fr-Lr: K. Eichkorn, F. Weigend, O. Treutler, R. Ahlrichs; Theor. Chem. Acc. 97, 119 (1997).

================================================================================
                                        WARNINGS
                       Please study these warnings very carefully!
================================================================================


WARNING: CIS/ROCIS methods need fully converged wavefunctions
  ===> : Setting SCFConvForced true
         You can overwrite this default with %scf ConvForced false 


================================================================================
                                       INPUT FILE
================================================================================
NAME = B3LYP_excited.INP
|  1> ! B3LYP def2-TZVP RIJCOSX def2/J TightSCF
|  2> 
|  3> %pal 
|  4>   nprocs 20
|  5> end
|  6> 
|  7> %scf
|  8>   MaxIter   1000
|  9> end
| 10> 
| 11> %tddft
| 12>   nroots 5             
| 13> end
| 14> 
| 15> * xyz 0 1
| 16>   C          -0.02904836257109     -1.85738392100120      0.00338367508862
| 17>   C           0.03302932915170     -1.12043435725630      1.17865917978902
| 18>   C           0.09999694447045      0.26400216001210      1.11648653748497
| 19>   C           0.10656028248081      0.93685521534513     -0.10833761746467
| 20>   C           0.04380020380713      0.18506230019510     -1.28116709560653
| 21>   C          -0.02339061513477     -1.19863109693287     -1.22330368661293
| 22>   H          -0.08150356334770     -2.93700289612268      0.04847429473717
| 23>   H           0.02995586378788     -1.60810223321604      2.14414062471363
| 24>   H           0.04920782987183      0.71272820710226     -2.22606223782738
| 25>   H          -0.07171466928826     -1.76673547388581     -2.14360326165331
| 26>   O           0.17091776628649      2.28648099400261     -0.20758021445524
| 27>   H           0.21152490930183      2.66572558609439      0.68246197900469
| 28>   Cl          0.17841731118370      1.21424990566332      2.58824738280195
| 29> *
| 30> 
| 31> 
| 32>                          ****END OF INPUT****
================================================================================

                       ****************************
                       * Single Point Calculation *
                       ****************************

---------------------------------
CARTESIAN COORDINATES (ANGSTROEM)
---------------------------------
  C     -0.029048   -1.857384    0.003384
  C      0.033029   -1.120434    1.178659
  C      0.099997    0.264002    1.116487
  C      0.106560    0.936855   -0.108338
  C      0.043800    0.185062   -1.281167
  C     -0.023391   -1.198631   -1.223304
  H     -0.081504   -2.937003    0.048474
  H      0.029956   -1.608102    2.144141
  H      0.049208    0.712728   -2.226062
  H     -0.071715   -1.766735   -2.143603
  O      0.170918    2.286481   -0.207580
  H      0.211525    2.665726    0.682462
  Cl     0.178417    1.214250    2.588247

----------------------------
CARTESIAN COORDINATES (A.U.)
----------------------------
  NO LB      ZA    FRAG     MASS         X           Y           Z
   0 C     6.0000    0    12.011   -0.054893   -3.509947    0.006394
   1 C     6.0000    0    12.011    0.062416   -2.117314    2.227343
   2 C     6.0000    0    12.011    0.188967    0.498892    2.109854
   3 C     6.0000    0    12.011    0.201370    1.770400   -0.204728
   4 C     6.0000    0    12.011    0.082770    0.349717   -2.421055
   5 C     6.0000    0    12.011   -0.044202   -2.265085   -2.311709
   6 H     1.0000    0     1.008   -0.154019   -5.550131    0.091603
   7 H     1.0000    0     1.008    0.056608   -3.038873    4.051839
   8 H     1.0000    0     1.008    0.092989    1.346861   -4.206648
   9 H     1.0000    0     1.008   -0.135521   -3.338646   -4.050823
  10 O     8.0000    0    15.999    0.322988    4.320823   -0.392270
  11 H     1.0000    0     1.008    0.399724    5.037491    1.289666
  12 Cl   17.0000    0    35.453    0.337160    2.294600    4.891079

--------------------------------
INTERNAL COORDINATES (ANGSTROEM)
--------------------------------
 C      0   0   0     0.000000000000     0.00000000     0.00000000
 C      1   0   0     1.388603907262     0.00000000     0.00000000
 C      2   1   0     1.387448942952   119.59009163     0.00000000
 C      3   2   1     1.397486501554   121.32751269     0.00000000
 C      4   3   2     1.394510810121   118.51204496     0.00000000
 C      5   4   3     1.386531715290   120.33717120     0.00000000
 H      1   2   3     1.081832631931   119.76987292   180.00962164
 H      2   1   3     1.081657905221   121.06878051   179.99242633
 H      5   4   3     1.082260311350   118.11307133   179.99517173
 H      6   5   4     1.082602930507   119.36495290   179.99051178
 O      4   3   2     1.354799144226   122.96047981   179.99567314
 H     11   4   3     0.968323554827   108.95445846     0.16182870
 Cl     3   2   1     1.753624964991   120.34794660   179.97469528

---------------------------
INTERNAL COORDINATES (A.U.)
---------------------------
 C      0   0   0     0.000000000000     0.00000000     0.00000000
 C      1   0   0     2.624081093217     0.00000000     0.00000000
 C      2   1   0     2.621898526978   119.59009163     0.00000000
 C      3   2   1     2.640866763788   121.32751269     0.00000000
 C      4   3   2     2.635243521921   118.51204496     0.00000000
 C      5   4   3     2.620165217895   120.33717120     0.00000000
 H      1   2   3     2.044367397089   119.76987292   180.00962164
 H      2   1   3     2.044037211458   121.06878051   179.99242633
 H      5   4   3     2.045175594065   118.11307133   179.99517173
 H      6   5   4     2.045823050439   119.36495290   179.99051178
 O      4   3   2     2.560199349058   122.96047981   179.99567314
 H     11   4   3     1.829866327649   108.95445846     0.16182870
 Cl     3   2   1     3.313870925440   120.34794660   179.97469528

---------------------
BASIS SET INFORMATION
---------------------
There are 4 groups of distinct atoms

 Group   1 Type C   : 11s6p2d1f contracted to 5s3p2d1f pattern {62111/411/11/1}
 Group   2 Type H   : 5s1p contracted to 3s1p pattern {311/1}
 Group   3 Type O   : 11s6p2d1f contracted to 5s3p2d1f pattern {62111/411/11/1}
 Group   4 Type Cl  : 14s9p3d1f contracted to 5s5p2d1f pattern {73211/51111/21/1}

Atom   0C    basis set group =>   1
Atom   1C    basis set group =>   1
Atom   2C    basis set group =>   1
Atom   3C    basis set group =>   1
Atom   4C    basis set group =>   1
Atom   5C    basis set group =>   1
Atom   6H    basis set group =>   2
Atom   7H    basis set group =>   2
Atom   8H    basis set group =>   2
Atom   9H    basis set group =>   2
Atom  10O    basis set group =>   3
Atom  11H    basis set group =>   2
Atom  12Cl   basis set group =>   4
---------------------------------
AUXILIARY/J BASIS SET INFORMATION
---------------------------------
There are 4 groups of distinct atoms

 Group   1 Type C   : 12s5p4d2f1g contracted to 6s4p3d1f1g pattern {711111/2111/211/2/1}
 Group   2 Type H   : 5s2p1d contracted to 3s1p1d pattern {311/2/1}
 Group   3 Type O   : 12s5p4d2f1g contracted to 6s4p3d1f1g pattern {711111/2111/211/2/1}
 Group   4 Type Cl  : 14s5p5d2f1g contracted to 8s4p3d1f1g pattern {71111111/2111/311/2/1}

Atom   0C    basis set group =>   1
Atom   1C    basis set group =>   1
Atom   2C    basis set group =>   1
Atom   3C    basis set group =>   1
Atom   4C    basis set group =>   1
Atom   5C    basis set group =>   1
Atom   6H    basis set group =>   2
Atom   7H    basis set group =>   2
Atom   8H    basis set group =>   2
Atom   9H    basis set group =>   2
Atom  10O    basis set group =>   3
Atom  11H    basis set group =>   2
Atom  12Cl   basis set group =>   4


           ************************************************************
           *        Program running with 20 parallel MPI-processes    *
           *              working on a common directory               *
           ************************************************************
------------------------------------------------------------------------------
                             ORCA STARTUP CALCULATIONS
                           -- RI-GTO INTEGRALS CHOSEN --
------------------------------------------------------------------------------
------------------------------------------------------------------------------
                   ___                                                        
                  /   \      - P O W E R E D   B Y -                         
                 /     \                                                     
                 |  |  |   _    _      __       _____    __    __             
                 |  |  |  | |  | |    /  \     |  _  \  |  |  /  |          
                  \  \/   | |  | |   /    \    | | | |  |  | /  /          
                 / \  \   | |__| |  /  /\  \   | |_| |  |  |/  /          
                |  |  |   |  __  | /  /__\  \  |    /   |      \           
                |  |  |   | |  | | |   __   |  |    \   |  |\   \          
                \     /   | |  | | |  |  |  |  | |\  \  |  | \   \       
                 \___/    |_|  |_| |__|  |__|  |_| \__\ |__|  \__/        
                                                                              
                      - O R C A' S   B I G   F R I E N D -                    
                                      &                                       
                       - I N T E G R A L  F E E D E R -                       
                                                                              
 v1 FN, 2020, v2 2021, v3 2022-2024                                           
------------------------------------------------------------------------------


----------------------
SHARK INTEGRAL PACKAGE
----------------------

Number of atoms                             ...     13
Number of basis functions                   ...    284
Number of shells                            ...    110
Maximum angular momentum                    ...      3
Integral batch strategy                     ... SHARK/LIBINT Hybrid
RI-J (if used) integral strategy            ... SPLIT-RIJ (Revised 2003 algorithm where possible)
Printlevel                                  ...      1
Contraction scheme used                     ... SEGMENTED contraction
Prescreening option                         ... SCHWARTZ
   Thresh                                   ... 2.500e-11
   Tcut                                     ... 2.500e-12
   Tpresel                                  ... 2.500e-12 
Coulomb Range Separation                    ... NOT USED
Exchange Range Separation                   ... NOT USED
Multipole approximations                    ... NOT USED
Finite Nucleus Model                        ... NOT USED
CABS basis                                  ... NOT available
Auxiliary Coulomb fitting basis             ... AVAILABLE
   # of basis functions in Aux-J            ...    449
   # of shells in Aux-J                     ...    147
   Maximum angular momentum in Aux-J        ...      4
Auxiliary J/K fitting basis                 ... NOT available
Auxiliary Correlation fitting basis         ... NOT available
Auxiliary 'external' fitting basis          ... NOT available

Checking pre-screening integrals            ... done (  0.0 sec) Dimension = 110
   => SHARK Basis and OBASIS are compatible. Storing Pre-screening
Shell pair information
Shell pair cut-off parameter TPreSel        ...   2.5e-12
Total number of shell pairs                 ...      6105
Shell pairs after pre-screening             ...      5615
Total number of primitive shell pairs       ...     19708
Primitive shell pairs kept                  ...     13481
          la=0 lb=0:   1339 shell pairs
          la=1 lb=0:   1566 shell pairs
          la=1 lb=1:    470 shell pairs
          la=2 lb=0:    829 shell pairs
          la=2 lb=1:    476 shell pairs
          la=2 lb=2:    132 shell pairs
          la=3 lb=0:    404 shell pairs
          la=3 lb=1:    237 shell pairs
          la=3 lb=2:    126 shell pairs
          la=3 lb=3:     36 shell pairs

Checking whether 4 symmetric matrices of dimension 284 fit in memory
:Max Core in MB      =   4096.00
 MB in use           =      9.07
 MB left             =   4086.93
 MB needed           =      1.24
 Data fit in memory  = YES
Calculating RI/J V-Matrix + Cholesky decomp.... done (  0.0 sec)
Calculating Nuclear repulsion               ... done (  0.0 sec) ENN=    406.434710265295 Eh

Diagonalization of the overlap matrix:
Smallest eigenvalue                        ... 1.045e-05
Time for diagonalization                   ...    0.005 sec
Threshold for overlap eigenvalues          ... 1.000e-07
Number of eigenvalues below threshold      ... 0
Time for construction of square roots      ...    0.004 sec
Total time needed                          ...    0.013 sec

-------------------
DFT GRID GENERATION
-------------------

General Integration Accuracy     IntAcc      ... 4.388
Radial Grid Type                 RadialGrid  ... OptM3 with GC (2021)
Angular Grid (max. ang.)         AngularGrid ... 4 (Lebedev-302)
Angular grid pruning method      GridPruning ... 4 (adaptive)
Weight generation scheme         WeightScheme... mBecke (2022)
Basis function cutoff            BFCut       ... 1.0000e-11
Integration weight cutoff        WCut        ... 1.0000e-14
Partially contracted basis set               ... off
Rotationally invariant grid construction     ... off
Angular grids for H and He will be reduced by one unit

Total number of grid points                  ...    65593
Total number of batches                      ...     1031
Average number of points per batch           ...       63
Average number of grid points per atom       ...     5046

--------------------
COSX GRID GENERATION
--------------------

GRIDX 1
-------
General Integration Accuracy     IntAcc      ... 3.816
Radial Grid Type                 RadialGrid  ... OptM3 with GC (2021)
Angular Grid (max. ang.)         AngularGrid ... 1 (Lebedev-50)
Angular grid pruning method      GridPruning ... 4 (adaptive)
Weight generation scheme         WeightScheme... mBecke (2022)
Basis function cutoff            BFCut       ... 1.0000e-11
Integration weight cutoff        WCut        ... 1.0000e-14
Partially contracted basis set               ... on
Rotationally invariant grid construction     ... off
Angular grids for H and He will be reduced by one unit

Total number of grid points                  ...     9406
Total number of batches                      ...       79
Average number of points per batch           ...      119
Average number of grid points per atom       ...      724
UseSFitting                                  ... on

GRIDX 2
-------
General Integration Accuracy     IntAcc      ... 4.020
Radial Grid Type                 RadialGrid  ... OptM3 with GC (2021)
Angular Grid (max. ang.)         AngularGrid ... 2 (Lebedev-110)
Angular grid pruning method      GridPruning ... 4 (adaptive)
Weight generation scheme         WeightScheme... mBecke (2022)
Basis function cutoff            BFCut       ... 1.0000e-11
Integration weight cutoff        WCut        ... 1.0000e-14
Partially contracted basis set               ... on
Rotationally invariant grid construction     ... off
Angular grids for H and He will be reduced by one unit

Total number of grid points                  ...    18421
Total number of batches                      ...      149
Average number of points per batch           ...      123
Average number of grid points per atom       ...     1417
UseSFitting                                  ... on

GRIDX 3
-------
General Integration Accuracy     IntAcc      ... 4.338
Radial Grid Type                 RadialGrid  ... OptM3 with GC (2021)
Angular Grid (max. ang.)         AngularGrid ... 3 (Lebedev-194)
Angular grid pruning method      GridPruning ... 4 (adaptive)
Weight generation scheme         WeightScheme... mBecke (2022)
Basis function cutoff            BFCut       ... 1.0000e-11
Integration weight cutoff        WCut        ... 1.0000e-14
Partially contracted basis set               ... on
Rotationally invariant grid construction     ... off
Angular grids for H and He will be reduced by one unit

Total number of grid points                  ...    41185
Total number of batches                      ...      329
Average number of points per batch           ...      125
Average number of grid points per atom       ...     3168
UseSFitting                                  ... on
Grids setup in   0.4 sec
Initializing property integral containers    ... done (  0.0 sec)

SHARK setup successfully completed in   0.6 seconds

Maximum memory used throughout the entire STARTUP-calculation: 21.7 MB


           ************************************************************
           *        Program running with 20 parallel MPI-processes    *
           *              working on a common directory               *
           ************************************************************
-------------------------------------------------------------------------------
                                 ORCA GUESS
                   Start orbitals & Density for SCF / CASSCF
-------------------------------------------------------------------------------

------------
SCF SETTINGS
------------
Hamiltonian:
 Density Functional     Method          .... DFT(GTOs)
 Exchange Functional    Exchange        .... B88
   X-Alpha parameter    XAlpha          ....  0.666667
   Becke's b parameter  XBeta           ....  0.004200
 Correlation Functional Correlation     .... LYP
 LDA part of GGA corr.  LDAOpt          .... VWN-5
 Gradients option       PostSCFGGA      .... off
 Hybrid DFT is turned on
   Fraction HF Exchange ScalHFX         ....  0.200000
   Scaling of DF-GGA-X  ScalDFX         ....  0.720000
   Scaling of DF-GGA-C  ScalDFC         ....  0.810000
   Scaling of DF-LDA-C  ScalLDAC        ....  1.000000
   Perturbative correction              ....  0.000000
   NL short-range parameter             ....  4.800000
 RI-approximation to the Coulomb term is turned on
   Number of AuxJ basis functions       .... 449
   RIJ-COSX (HFX calculated with COS-X)).... on


General Settings:
 Integral files         IntName         .... B3LYP_excited
 Hartree-Fock type      HFTyp           .... RHF
 Total Charge           Charge          ....    0
 Multiplicity           Mult            ....    1
 Number of Electrons    NEL             ....   66
 Basis Dimension        Dim             ....  284
 Nuclear Repulsion      ENuc            ....    406.4347102653 Eh

Convergence Acceleration:
 AO-DIIS                CNVDIIS         .... on
   Start iteration      DIISMaxIt       ....    12
   Startup error        DIISStart       ....  0.200000
   # of expansion vecs  DIISMaxEq       ....     5
   Bias factor          DIISBfac        ....   1.050
   Max. coefficient     DIISMaxC        ....  10.000
 MO-DIIS                CNVKDIIS        .... off
 Trust-Rad. Augm. Hess. CNVTRAH         .... auto
   Auto Start mean grad. ratio tolernc. ....  1.125000
   Auto Start start iteration           ....    50
   Auto Start num. interpolation iter.  ....    10
   Max. Number of Micro iterations      ....    24
   Max. Number of Macro iterations      .... Maxiter - #DIIS iter
   Number of Davidson start vectors     ....     2
   Converg. threshold    (grad. norm)   ....   1.000e-05
   Grad. Scal. Fac. for Micro threshold ....   0.100
   Minimum threshold for Micro iter.    ....   1.000e-02
   NR start threshold (gradient norm)   ....   1.000e-04
   Initial trust radius                 ....   0.400
   Minimum AH scaling param. (alpha)    ....   1.000
   Maximum AH scaling param. (alpha)    .... 1000.000
   Quad. conv. algorithm                .... NR
   White noise on init. David. guess    .... on
   Maximum white noise                  ....   0.010
   Pseudo random numbers                .... off
   Inactive MOs                         .... canonical
   Orbital update algorithm             .... Taylor
   Preconditioner                       .... Diag
   Full preconditioner red. dimension   ....   250
 SOSCF                 CNVSOSCF           .... on
   Start iteration     SOSCFMaxIt         ....   150
   Startup grad/error  SOSCFStart         ....  0.003300
   Hessian update      SOSCFHessUp        .... L-BFGS
   Autom. constraints  SOSCFAutoConstrain .... off
 Level Shifting         CNVShift        .... on
   Level shift para.    LevelShift      ....    0.2500
   Turn off err/grad.   ShiftErr        ....    0.0010
 Zerner damping         CNVZerner       .... off
 Static damping         CNVDamp         .... on
   Fraction old density DampFac         ....    0.7000
   Max. Damping (<1)    DampMax         ....    0.9800
   Min. Damping (>=0)   DampMin         ....    0.0000
   Turn off err/grad.   DampErr         ....    0.1000

SCF Procedure:
 Maximum # iterations   MaxIter         ....  1000
 SCF integral mode      SCFMode         .... Direct
   Integral package                     .... SHARK and LIBINT hybrid scheme
 Reset frequency        DirectResetFreq ....    20
 Integral Threshold     Thresh          ....  2.500e-11 Eh
 Primitive CutOff       TCut            ....  2.500e-12 Eh

Convergence Tolerance:
 Convergence Check Mode ConvCheckMode   .... Total+1el-Energy
 Convergence forced     ConvForced      .... 1
 Energy Change          TolE            ....  1.000e-08 Eh
 1-El. energy change                    ....  1.000e-05 Eh
 Orbital Gradient       TolG            ....  1.000e-05
 Orbital Rotation angle TolX            ....  1.000e-05
 DIIS Error             TolErr          ....  5.000e-07

------------------------------
INITIAL GUESS: MODEL POTENTIAL
------------------------------
Loading Hartree-Fock densities                     ... done
Calculating cut-offs                               ... done
Initializing the effective Hamiltonian             ... done
Setting up the integral package (SHARK)            ... done
Starting the Coulomb interaction                   ... done (   0.0 sec)
Making the grid                                    ... done (   0.1 sec)
Mapping shells                                     ... done
Starting the XC term evaluation                    ... done (   0.0 sec)
  promolecular density results
     # of electrons  =     65.997590056
     EX              =    -68.084286533
     EC              =     -2.375298622
     EX+EC           =    -70.459585155
Transforming the Hamiltonian                       ... done (   0.0 sec)
Diagonalizing the Hamiltonian                      ... done (   0.0 sec)
Back transforming the eigenvectors                 ... done (   0.0 sec)
Now organizing SCF variables                       ... done
                      ------------------
                      INITIAL GUESS DONE (   0.2 sec)
                      ------------------
             **** ENERGY FILE WAS UPDATED (B3LYP_excited.en.tmp) ****
Finished Guess after   0.3 sec
Maximum memory used throughout the entire GUESS-calculation: 14.0 MB


           ************************************************************
           *        Program running with 20 parallel MPI-processes    *
           *              working on a common directory               *
           ************************************************************

-------------------------------------------------------------------------------------------
                                      ORCA LEAN-SCF
                              memory conserving SCF solver
-------------------------------------------------------------------------------------------

----------------------------------------D-I-I-S--------------------------------------------
Iteration    Energy (Eh)           Delta-E    RMSDP     MaxDP     DIISErr   Damp  Time(sec)
-------------------------------------------------------------------------------------------
               ***  Starting incremental Fock matrix formation  ***
    1    -766.7658811365265592     0.00e+00  9.62e-03  1.44e-01  2.38e-01  0.700   0.5
    2    -766.8638331780080080    -9.80e-02  8.49e-03  1.43e-01  1.03e-01  0.700   0.4
                               ***Turning on AO-DIIS***
    3    -766.9018608868175306    -3.80e-02  3.04e-03  3.45e-02  3.21e-02  0.700   0.4
    4    -766.9241870539665342    -2.23e-02  4.36e-03  3.32e-02  1.59e-02  0.000   0.4
    5    -766.9736887940462111    -4.95e-02  2.41e-03  4.08e-02  9.53e-03  0.000   0.4
                              *** Initializing SOSCF ***
---------------------------------------S-O-S-C-F--------------------------------------
Iteration    Energy (Eh)           Delta-E    RMSDP     MaxDP     MaxGrad    Time(sec)
--------------------------------------------------------------------------------------
    6    -766.9740372520097935    -3.48e-04  7.36e-04  1.06e-02  1.62e-03     0.4
               *** Restarting incremental Fock matrix formation ***
    7    -766.9740443511293506    -7.10e-06  7.34e-04  1.18e-02  2.54e-04     0.6
    8    -766.9740409571093096     3.39e-06  1.90e-04  3.46e-03  5.65e-04     0.6
    9    -766.9740484010731052    -7.44e-06  5.38e-05  6.49e-04  6.58e-05     0.6
   10    -766.9740483222094554     7.89e-08  1.52e-05  2.06e-04  8.50e-05     0.7
   11    -766.9740484681169619    -1.46e-07  1.13e-05  8.90e-05  8.54e-06     1.0
   12    -766.9740484721069151    -3.99e-09  3.86e-06  2.97e-05  9.84e-06     0.9
                 **** Energy Check signals convergence ****

               *****************************************************
               *                     SUCCESS                       *
               *           SCF CONVERGED AFTER  12 CYCLES          *
               *****************************************************

Recomputing exchange energy using gridx3       ... done (    0.621 sec)
Old exchange energy                            :    -13.737635850 Eh
New exchange energy                            :    -13.737637694 Eh
Exchange energy change after final integration :     -0.000001844 Eh
Total energy after final integration           :   -766.974050314 Eh
             **** ENERGY FILE WAS UPDATED (B3LYP_excited.en.tmp) ****

----------------
TOTAL SCF ENERGY
----------------

Total Energy       :       -766.97405031435437 Eh          -20870.42494 eV

Components:
Nuclear Repulsion  :        406.43471026529483 Eh           11059.65073 eV
Electronic Energy  :      -1173.40875873573395 Eh          -31930.07562 eV
One Electron Energy:      -1857.38090065529195 Eh          -50541.90381 eV
Two Electron Energy:        683.97214191955800 Eh           18611.82819 eV

Virial components:
Potential Energy   :      -1532.01424093820560 Eh          -41688.22688 eV
Kinetic Energy     :        765.04019062385134 Eh           20817.80194 eV
Virial Ratio       :          2.00252778836224

DFT components:
N(Alpha)           :       33.000003377101 electrons
N(Beta)            :       33.000003377101 electrons
N(Total)           :       66.000006754201 electrons
E(X)               :      -54.580558956965 Eh       
E(C)               :       -2.796405437287 Eh       
E(XC)              :      -57.376964394252 Eh       

---------------
SCF CONVERGENCE
---------------

  Last Energy change         ...    3.9900e-09  Tolerance :   1.0000e-08
  Last MAX-Density change    ...    2.9693e-05  Tolerance :   1.0000e-07
  Last RMS-Density change    ...    3.8607e-06  Tolerance :   5.0000e-09
  Last DIIS Error            ...    1.6236e-03  Tolerance :   5.0000e-07
  Last Orbital Gradient      ...    9.8377e-06  Tolerance :   1.0000e-05
  Last Orbital Rotation      ...    1.3200e-05  Tolerance :   1.0000e-05


----------------
ORBITAL ENERGIES
----------------

  NO   OCC          E(Eh)            E(eV) 
   0   2.0000    -101.539743     -2763.0369 
   1   2.0000     -19.165412      -521.5174 
   2   2.0000     -10.250690      -278.9355 
   3   2.0000     -10.237521      -278.5771 
   4   2.0000     -10.190760      -277.3047 
   5   2.0000     -10.184464      -277.1334 
   6   2.0000     -10.181159      -277.0434 
   7   2.0000     -10.179735      -277.0047 
   8   2.0000      -9.471707      -257.7383 
   9   2.0000      -7.232988      -196.8196 
  10   2.0000      -7.224844      -196.5980 
  11   2.0000      -7.224686      -196.5937 
  12   2.0000      -1.076273       -29.2869 
  13   2.0000      -0.894845       -24.3500 
  14   2.0000      -0.846167       -23.0254 
  15   2.0000      -0.758608       -20.6428 
  16   2.0000      -0.738991       -20.1090 
  17   2.0000      -0.629258       -17.1230 
  18   2.0000      -0.621535       -16.9128 
  19   2.0000      -0.557328       -15.1657 
  20   2.0000      -0.513191       -13.9646 
  21   2.0000      -0.483289       -13.1510 
  22   2.0000      -0.454314       -12.3625 
  23   2.0000      -0.438584       -11.9345 
  24   2.0000      -0.435614       -11.8537 
  25   2.0000      -0.406249       -11.0546 
  26   2.0000      -0.384251       -10.4560 
  27   2.0000      -0.367767       -10.0074 
  28   2.0000      -0.359192        -9.7741 
  29   2.0000      -0.342204        -9.3118 
  30   2.0000      -0.332497        -9.0477 
  31   2.0000      -0.260953        -7.1009 
  32   2.0000      -0.237014        -6.4495 
  33   0.0000      -0.025361        -0.6901 
  34   0.0000      -0.008887        -0.2418 
  35   0.0000       0.013180         0.3586 
  36   0.0000       0.045194         1.2298 
  37   0.0000       0.062438         1.6990 
  38   0.0000       0.079692         2.1685 
  39   0.0000       0.104017         2.8304 
  40   0.0000       0.110634         3.0105 
  41   0.0000       0.127056         3.4574 
  42   0.0000       0.134750         3.6667 
  43   0.0000       0.173560         4.7228 
*Only the first 10 virtual orbitals were printed.

                    ********************************
                    * MULLIKEN POPULATION ANALYSIS *
                    ********************************

-----------------------
MULLIKEN ATOMIC CHARGES
-----------------------
   0 C :   -0.123009
   1 C :   -0.162774
   2 C :    0.127840
   3 C :    0.179174
   4 C :   -0.187232
   5 C :   -0.090157
   6 H :    0.111046
   7 H :    0.124434
   8 H :    0.117732
   9 H :    0.112450
  10 O :   -0.378424
  11 H :    0.307876
  12 Cl:   -0.138957
Sum of atomic charges:   -0.0000000

--------------------------------
MULLIKEN REDUCED ORBITAL CHARGES
--------------------------------
  0 C s       :     3.201214  s :     3.201214
      pz      :     0.889193  p :     2.836900
      px      :     0.996268
      py      :     0.951439
      dz2     :     0.023046  d :     0.077574
      dxz     :     0.022089
      dyz     :     0.018635
      dx2y2   :     0.008418
      dxy     :     0.005386
      f0      :     0.001672  f :     0.007321
      f+1     :     0.001214
      f-1     :     0.001179
      f+2     :     0.000908
      f-2     :     0.001157
      f+3     :     0.000499
      f-3     :     0.000692

  1 C s       :     3.222302  s :     3.222302
      pz      :     0.965537  p :     2.848529
      px      :     0.969390
      py      :     0.913603
      dz2     :     0.019432  d :     0.084332
      dxz     :     0.008706
      dyz     :     0.020827
      dx2y2   :     0.012158
      dxy     :     0.023209
      f0      :     0.001439  f :     0.007612
      f+1     :     0.000873
      f-1     :     0.001184
      f+2     :     0.001251
      f-2     :     0.000542
      f+3     :     0.001681
      f-3     :     0.000643

  2 C s       :     3.151005  s :     3.151005
      pz      :     0.734167  p :     2.572018
      px      :     1.069798
      py      :     0.768054
      dz2     :     0.031490  d :     0.138866
      dxz     :     0.023947
      dyz     :     0.042732
      dx2y2   :     0.015182
      dxy     :     0.025515
      f0      :     0.002158  f :     0.010271
      f+1     :     0.001248
      f-1     :     0.001657
      f+2     :     0.001909
      f-2     :     0.000935
      f+3     :     0.001720
      f-3     :     0.000643

  3 C s       :     3.072353  s :     3.072353
      pz      :     0.934040  p :     2.552589
      px      :     0.923175
      py      :     0.695374
      dz2     :     0.032564  d :     0.179902
      dxz     :     0.024646
      dyz     :     0.061316
      dx2y2   :     0.014360
      dxy     :     0.047016
      f0      :     0.003438  f :     0.015982
      f+1     :     0.001742
      f-1     :     0.001868
      f+2     :     0.002623
      f-2     :     0.001254
      f+3     :     0.003175
      f-3     :     0.001882

  4 C s       :     3.251285  s :     3.251285
      pz      :     0.935544  p :     2.857710
      px      :     1.013326
      py      :     0.908840
      dz2     :     0.012151  d :     0.070737
      dxz     :     0.009604
      dyz     :     0.023683
      dx2y2   :     0.007333
      dxy     :     0.017967
      f0      :     0.001285  f :     0.007500
      f+1     :     0.000778
      f-1     :     0.001267
      f+2     :     0.001362
      f-2     :     0.000542
      f+3     :     0.001621
      f-3     :     0.000646

  5 C s       :     3.196628  s :     3.196628
      pz      :     0.946285  p :     2.806680
      px      :     0.955949
      py      :     0.904447
      dz2     :     0.014790  d :     0.079479
      dxz     :     0.010090
      dyz     :     0.025241
      dx2y2   :     0.009480
      dxy     :     0.019878
      f0      :     0.001416  f :     0.007369
      f+1     :     0.000963
      f-1     :     0.001208
      f+2     :     0.001254
      f-2     :     0.000385
      f+3     :     0.001588
      f-3     :     0.000555

  6 H s       :     0.866365  s :     0.866365
      pz      :     0.003530  p :     0.022588
      px      :     0.005139
      py      :     0.013920

  7 H s       :     0.853072  s :     0.853072
      pz      :     0.012039  p :     0.022494
      px      :     0.004747
      py      :     0.005708

  8 H s       :     0.859740  s :     0.859740
      pz      :     0.011532  p :     0.022529
      px      :     0.005010
      py      :     0.005987

  9 H s       :     0.865220  s :     0.865220
      pz      :     0.011123  p :     0.022330
      px      :     0.004785
      py      :     0.006422

 10 O s       :     3.766431  s :     3.766431
      pz      :     1.458172  p :     4.579117
      px      :     1.809225
      py      :     1.311720
      dz2     :     0.009195  d :     0.031166
      dxz     :     0.001708
      dyz     :     0.008196
      dx2y2   :     0.006442
      dxy     :     0.005626
      f0      :     0.000231  f :     0.001710
      f+1     :     0.000026
      f-1     :     0.000388
      f+2     :     0.000275
      f-2     :     0.000022
      f+3     :     0.000346
      f-3     :     0.000421

 11 H s       :     0.643472  s :     0.643472
      pz      :     0.020896  p :     0.048652
      px      :     0.015705
      py      :     0.012051

 12 Cls       :     5.894776  s :     5.894776
      pz      :     3.485024  p :    11.174547
      px      :     3.931125
      py      :     3.758397
      dz2     :     0.016620  d :     0.064183
      dxz     :     0.014586
      dyz     :     0.021836
      dx2y2   :     0.004267
      dxy     :     0.006875
      f0      :     0.000914  f :     0.005451
      f+1     :     0.000608
      f-1     :     0.002034
      f+2     :     0.000898
      f-2     :     0.000728
      f+3     :     0.000143
      f-3     :     0.000126



                     *******************************
                     * LOEWDIN POPULATION ANALYSIS *
                     *******************************

----------------------
LOEWDIN ATOMIC CHARGES
----------------------
   0 C :   -0.150940
   1 C :   -0.143260
   2 C :   -0.405771
   3 C :   -0.283061
   4 C :   -0.113564
   5 C :   -0.135154
   6 H :    0.143589
   7 H :    0.147772
   8 H :    0.150613
   9 H :    0.145019
  10 O :    0.094626
  11 H :    0.175158
  12 Cl:    0.374974

-------------------------------
LOEWDIN REDUCED ORBITAL CHARGES
-------------------------------
  0 C s       :     2.762810  s :     2.762810
      pz      :     1.062080  p :     2.961072
      px      :     0.911943
      py      :     0.987049
      dz2     :     0.138104  d :     0.383398
      dxz     :     0.077189
      dyz     :     0.103218
      dx2y2   :     0.051446
      dxy     :     0.013441
      f0      :     0.012113  f :     0.043660
      f+1     :     0.003783
      f-1     :     0.008901
      f+2     :     0.007771
      f-2     :     0.007653
      f+3     :     0.000660
      f-3     :     0.002780

  1 C s       :     2.765564  s :     2.765564
      pz      :     1.017427  p :     2.943105
      px      :     0.888056
      py      :     1.037622
      dz2     :     0.099274  d :     0.390269
      dxz     :     0.026889
      dyz     :     0.129476
      dx2y2   :     0.057737
      dxy     :     0.076892
      f0      :     0.009637  f :     0.044323
      f+1     :     0.004080
      f-1     :     0.007721
      f+2     :     0.007831
      f-2     :     0.003613
      f+3     :     0.006090
      f-3     :     0.005350

  2 C s       :     2.777558  s :     2.777558
      pz      :     0.956626  p :     2.980022
      px      :     0.974919
      py      :     1.048477
      dz2     :     0.147588  d :     0.586763
      dxz     :     0.080558
      dyz     :     0.208192
      dx2y2   :     0.067518
      dxy     :     0.082907
      f0      :     0.014778  f :     0.061427
      f+1     :     0.006107
      f-1     :     0.011165
      f+2     :     0.011994
      f-2     :     0.006775
      f+3     :     0.005435
      f-3     :     0.005174

  3 C s       :     2.716954  s :     2.716954
      pz      :     1.076180  p :     2.780778
      px      :     0.858604
      py      :     0.845995
      dz2     :     0.150019  d :     0.687630
      dxz     :     0.080126
      dyz     :     0.202536
      dx2y2   :     0.109489
      dxy     :     0.145460
      f0      :     0.021119  f :     0.097699
      f+1     :     0.008374
      f-1     :     0.013505
      f+2     :     0.017550
      f-2     :     0.008221
      f+3     :     0.016406
      f-3     :     0.012524

  4 C s       :     2.760632  s :     2.760632
      pz      :     0.986576  p :     2.945704
      px      :     0.915858
      py      :     1.043269
      dz2     :     0.082165  d :     0.364335
      dxz     :     0.025871
      dyz     :     0.144902
      dx2y2   :     0.051126
      dxy     :     0.060270
      f0      :     0.009015  f :     0.042893
      f+1     :     0.003559
      f-1     :     0.008097
      f+2     :     0.008519
      f-2     :     0.003501
      f+3     :     0.005218
      f-3     :     0.004985

  5 C s       :     2.763972  s :     2.763972
      pz      :     1.012287  p :     2.935600
      px      :     0.877854
      py      :     1.045459
      dz2     :     0.089272  d :     0.391656
      dxz     :     0.032385
      dyz     :     0.151502
      dx2y2   :     0.051511
      dxy     :     0.066987
      f0      :     0.010486  f :     0.043926
      f+1     :     0.004611
      f-1     :     0.007640
      f+2     :     0.008214
      f-2     :     0.002666
      f+3     :     0.005416
      f-3     :     0.004892

  6 H s       :     0.797406  s :     0.797406
      pz      :     0.010699  p :     0.059005
      px      :     0.014322
      py      :     0.033984

  7 H s       :     0.793025  s :     0.793025
      pz      :     0.030194  p :     0.059203
      px      :     0.013585
      py      :     0.015424

  8 H s       :     0.789854  s :     0.789854
      pz      :     0.029040  p :     0.059533
      px      :     0.014198
      py      :     0.016295

  9 H s       :     0.796735  s :     0.796735
      pz      :     0.027812  p :     0.058246
      px      :     0.013314
      py      :     0.017120

 10 O s       :     3.321069  s :     3.321069
      pz      :     1.454449  p :     4.506975
      px      :     1.695182
      py      :     1.357345
      dz2     :     0.016946  d :     0.072310
      dxz     :     0.000802
      dyz     :     0.024356
      dx2y2   :     0.015624
      dxy     :     0.014582
      f0      :     0.001095  f :     0.005019
      f+1     :     0.000059
      f-1     :     0.001169
      f+2     :     0.000669
      f-2     :     0.000030
      f+3     :     0.000997
      f-3     :     0.001000

 11 H s       :     0.669020  s :     0.669020
      pz      :     0.083622  p :     0.155822
      px      :     0.041560
      py      :     0.030640

 12 Cls       :     5.555739  s :     5.555739
      pz      :     3.430095  p :    10.955190
      px      :     3.856850
      py      :     3.668245
      dz2     :     0.027389  d :     0.102724
      dxz     :     0.022757
      dyz     :     0.033899
      dx2y2   :     0.007713
      dxy     :     0.010966
      f0      :     0.002253  f :     0.011373
      f+1     :     0.001312
      f-1     :     0.003710
      f+2     :     0.001816
      f-2     :     0.001770
      f+3     :     0.000280
      f-3     :     0.000233



                      *****************************
                      * MAYER POPULATION ANALYSIS *
                      *****************************

  NA   - Mulliken gross atomic population
  ZA   - Total nuclear charge
  QA   - Mulliken gross atomic charge
  VA   - Mayer's total valence
  BVA  - Mayer's bonded valence
  FA   - Mayer's free valence

  ATOM       NA         ZA         QA         VA         BVA        FA
  0 C      6.1230     6.0000    -0.1230     3.9165     3.9165    -0.0000
  1 C      6.1628     6.0000    -0.1628     3.9452     3.9452    -0.0000
  2 C      5.8722     6.0000     0.1278     3.5994     3.5994    -0.0000
  3 C      5.8208     6.0000     0.1792     4.0892     4.0892    -0.0000
  4 C      6.1872     6.0000    -0.1872     3.9292     3.9292     0.0000
  5 C      6.0902     6.0000    -0.0902     3.9190     3.9190    -0.0000
  6 H      0.8890     1.0000     0.1110     0.9694     0.9694     0.0000
  7 H      0.8756     1.0000     0.1244     0.9748     0.9748    -0.0000
  8 H      0.8823     1.0000     0.1177     0.9825     0.9825     0.0000
  9 H      0.8876     1.0000     0.1124     0.9672     0.9672    -0.0000
 10 O      8.3784     8.0000    -0.3784     2.0989     2.0989     0.0000
 11 H      0.6921     1.0000     0.3079     0.9427     0.9427    -0.0000
 12 Cl    17.1390    17.0000    -0.1390     1.2083     1.2083    -0.0000

  Mayer bond orders larger than 0.100000
B(  0-C ,  1-C ) :   1.4147 B(  0-C ,  5-C ) :   1.4000 B(  0-C ,  6-H ) :   0.9679 
B(  1-C ,  2-C ) :   1.3422 B(  1-C ,  7-H ) :   0.9586 B(  2-C ,  3-C ) :   1.2728 
B(  2-C , 12-Cl) :   0.9049 B(  3-C ,  4-C ) :   1.3822 B(  3-C , 10-O ) :   1.1991 
B(  4-C ,  5-C ) :   1.4348 B(  4-C ,  8-H ) :   0.9655 B(  5-C ,  9-H ) :   0.9698 
B( 10-O , 11-H ) :   0.8570 

-------
TIMINGS
-------

Total SCF time: 0 days 0 hours 0 min 9 sec 

Total time                  ....       9.047 sec
Sum of individual times     ....       8.054 sec  ( 89.0%)

SCF preparation             ....       0.151 sec  (  1.7%)
Fock matrix formation       ....       5.720 sec  ( 63.2%)
  Startup                   ....       0.060 sec  (  1.0% of F)
  Split-RI-J                ....       0.559 sec  (  9.8% of F)
  Chain of spheres X        ....       3.750 sec  ( 65.6% of F)
  XC integration            ....       1.262 sec  ( 22.1% of F)
    Basis function eval.    ....       0.178 sec  ( 14.1% of XC)
    Density eval.           ....       0.144 sec  ( 11.4% of XC)
    XC-Functional eval.     ....       0.019 sec  (  1.5% of XC)
    XC-Potential eval.      ....       0.215 sec  ( 17.0% of XC)
Diagonalization             ....       0.000 sec  (  0.0%)
Density matrix formation    ....       0.334 sec  (  3.7%)
Total Energy calculation    ....       0.183 sec  (  2.0%)
Population analysis         ....       0.157 sec  (  1.7%)
Orbital Transformation      ....       0.174 sec  (  1.9%)
Orbital Orthonormalization  ....       0.000 sec  (  0.0%)
DIIS solution               ....       0.311 sec  (  3.4%)
SOSCF solution              ....       0.997 sec  ( 11.0%)
Finished LeanSCF after   9.2 sec

Maximum memory used throughout the entire LEANSCF-calculation: 21.8 MB


           ************************************************************
           *        Program running with 20 parallel MPI-processes    *
           *              working on a common directory               *
           ************************************************************

------------------------------------------------------------------------------
                         ORCA PROPERTY INTEGRAL CALCULATIONS
------------------------------------------------------------------------------

GBWName                                   ... B3LYP_excited.gbw
Number of atoms                           ...     13
Number of basis functions                 ...    284
Max core memory                           ...   4096 MB

Dipole integrals                          ... YES
Quadrupole integrals                      ...  NO
Linear momentum integrals                 ... YES
Angular momentum integrals                ... YES
Higher moments length integrals           ...  NO
Higher moments velocity integrals         ...  NO
Kinetic energy integrals                  ...  NO
GIAO right hand sides                     ...  NO
GIAO dipole derivative integrals          ...  NO
SOC integrals                             ...  NO
EPR diamagnetic integrals (GIAO)          ...  NO
EPR gauge integrals                       ...  NO
Field gradient integrals                  ...  NO (   0 nuclei)
Spin-dipole/Fermi contact integrals       ...  NO (   0 nuclei)
Contact density integrals                 ...  NO (   0 nuclei)
Nucleus-orbit integrals                   ...  NO (   0 nuclei)
Geometric perturbations                   ...  NO (  13 nuclei)

Choice of electric origin   ... Center of mass
Position of electric origin ... (  0.1760,  0.6344,  1.2224) 
Choice of magnetic origin   ... GIAO
Position of magnetic origin ... (  0.0000,  0.0000,  0.0000) 

Calculating integrals                     ... Electric Dipole (Length)     done (  0.0 sec)
Calculating integrals                     ... Linear Momentum              done (  0.0 sec)
Calculating integrals                     ... Angular Momentum  (ElOri)    done (  0.0 sec)

Property integrals calculated in   0.1 sec

Maximum memory used throughout the entire PROPINT-calculation: 14.6 MB


           ************************************************************
           *        Program running with 20 parallel MPI-processes    *
           *              working on a common directory               *
           ************************************************************
------------------------------------------------------------------------------
                        ORCA TD-DFT/TDA CALCULATION
------------------------------------------------------------------------------

Input orbitals are from        ... B3LYP_excited.gbw
CI-vector output               ... B3LYP_excited.cis
Solver                         ... FN-2001
Tamm-Dancoff approximation     ... operative
CIS-Integral strategy          ... AO-integrals
Integral handling              ... AO integral Direct
Max. core memory used          ... 4096 MB
Reference state                ... RHF
Generation of triplets         ... off
Follow IRoot                   ... off
Number of operators            ... 1
Orbital ranges used for CIS calculation:
 Operator 0:  Orbitals  12... 32  to  33...283
XAS localization array:
 Operator 0:  Orbitals  -1... -1

-------------------
XC-INTEGRATION GRID
-------------------

General Integration Accuracy     IntAcc      ... 3.467
Radial Grid Type                 RadialGrid  ... OptM3 with GC (2021)
Angular Grid (max. ang.)         AngularGrid ... 1 (Lebedev-50)
Angular grid pruning method      GridPruning ... 4 (adaptive)
Weight generation scheme         WeightScheme... mBecke (2022)
Basis function cutoff            BFCut       ... 1.0000e-11
Integration weight cutoff        WCut        ... 1.0000e-14
Partially contracted basis set               ... off
Rotationally invariant grid construction     ... off
Angular grids for H and He will be reduced by one unit

Total number of grid points                  ...    10542
Total number of batches                      ...      170
Average number of points per batch           ...       62
Average number of grid points per atom       ...      811

---------------------
COSX-INTEGRATION GRID
---------------------

General Integration Accuracy     IntAcc      ... 3.067
Radial Grid Type                 RadialGrid  ... OptM3 with GC (2021)
Angular Grid (max. ang.)         AngularGrid ... 1 (Lebedev-50)
Angular grid pruning method      GridPruning ... 4 (adaptive)
Weight generation scheme         WeightScheme... mBecke (2022)
Basis function cutoff            BFCut       ... 1.0000e-11
Integration weight cutoff        WCut        ... 1.0000e-14
Partially contracted basis set               ... on
Rotationally invariant grid construction     ... off
Angular grids for H and He will be reduced by one unit

Total number of grid points                  ...     5215
Total number of batches                      ...       48
Average number of points per batch           ...      108
Average number of grid points per atom       ...      401

---------------
TD-DFT XC SETUP
---------------

DFT calculation                         ... on
Name of the grid file                   ... B3LYP_excited.grid_cis.tmp
RI-approximation                        ... on
Aux-basis dimension                     ... 0
Exchange functional (TD-DFT)            ... B88
   X-Alpha parameter    XAlpha (TD-DFT) ...  0.666667
   Becke's b parameter  XBeta (TD-DFT)  ...  0.004200
Correlation functional (TD-DFT)         ... LYP
 LDA part of GGA corr.  LDAOpt (TD-DFT) ... VWN-5
Hybrid DFT                              ... on
   Exchange mixing (TD-DFT)             ...  0.200
   GGA exch. scaling (TD-DFT)           ...  0.720
   GGA corr. scaling (TD-DFT)           ...  0.810

Building densities             ... done
Calculating rho(r) on the grid ... done
Building xc-kernel on the grid ... done
                    *** TD-DFT CALCULATION INITIALIZED ***

------------------------
DAVIDSON-DIAGONALIZATION
------------------------

Dimension of the eigenvalue problem            ...   5271
Number of roots to be determined               ...      5
Maximum size of the expansion space            ...     50
Maximum number of iterations                   ...    100
Convergence tolerance for the residual         ...    2.500e-07
Convergence tolerance for the energies         ...    2.500e-07
Orthogonality tolerance                        ...    1.000e-14
Level Shift                                    ...    0.000e+00
Constructing the preconditioner                ... o.k.
Building the initial guess                     ... o.k.
Number of trial vectors determined             ...     50


                       ****Iteration    0****
   Time for iteration     :  TOTAL=1.0 TRAFO=0.2 RIJ=0.2 COSX=0.4 XC=0.2
   Size of expansion space: 15
   Lowest Energy          :     0.190534961131
   Maximum Energy change  :     0.246638856413 (vector 4)
   Maximum residual norm  :     0.030945609255

                       ****Iteration    1****
   Time for iteration     :  TOTAL=0.5 TRAFO=0.1 RIJ=0.1 COSX=0.2 XC=0.1
   Size of expansion space: 20
   Lowest Energy          :     0.186291620625
   Maximum Energy change  :     0.015992015208 (vector 2)
   Maximum residual norm  :     0.000689607424

                       ****Iteration    2****
   Time for iteration     :  TOTAL=1.2 TRAFO=0.1 RIJ=0.2 COSX=0.5 XC=0.1
   Size of expansion space: 25
   Lowest Energy          :     0.185906162295
   Maximum Energy change  :     0.000577622242 (vector 2)
   Maximum residual norm  :     0.000038704075

                       ****Iteration    3****
   Time for iteration     :  TOTAL=0.6 TRAFO=0.1 RIJ=0.1 COSX=0.2 XC=0.1
   Size of expansion space: 30
   Lowest Energy          :     0.185880259837
   Maximum Energy change  :     0.000055978356 (vector 2)
   Maximum residual norm  :     0.000004954191

                       ****Iteration    4****
   Time for iteration     :  TOTAL=1.3 TRAFO=0.1 RIJ=0.2 COSX=0.7 XC=0.1
   Size of expansion space: 35
   Lowest Energy          :     0.185878606535
   Maximum Energy change  :     0.000005192293 (vector 2)
   Maximum residual norm  :     0.000000328591

                       ****Iteration    5****
   Time for iteration     :  TOTAL=1.0 TRAFO=0.1 RIJ=0.1 COSX=0.3 XC=0.4
   Size of expansion space: 40
   Lowest Energy          :     0.185878567590
   Maximum Energy change  :     0.000000402033 (vector 2)
   Maximum residual norm  :     0.000000017616

      *** CONVERGENCE OF RESIDUAL NORM REACHED ***

Storing the converged CI vectors               ... B3LYP_excited.cis1

                 *** DAVIDSON DONE ***

Total time for solving the CIS problem:     7.982sec

------------------------------------
TD-DFT/TDA EXCITED STATES (SINGLETS)
------------------------------------

the weight of the individual excitations are printed if larger than 1.0e-02

STATE  1:  E=   0.185879 au      5.058 eV    40795.6 cm**-1 <S**2> =   0.000000 Mult 1
    31a ->  34a  :     0.264785 (c= -0.51457257)
    32a ->  33a  :     0.721181 (c=  0.84922404)

STATE  2:  E=   0.209843 au      5.710 eV    46055.3 cm**-1 <S**2> =   0.000000 Mult 1
    31a ->  35a  :     0.010936 (c=  0.10457700)
    32a ->  35a  :     0.978764 (c= -0.98932483)

STATE  3:  E=   0.219181 au      5.964 eV    48104.6 cm**-1 <S**2> =   0.000000 Mult 1
    31a ->  33a  :     0.402849 (c= -0.63470418)
    32a ->  34a  :     0.557847 (c= -0.74689153)

STATE  4:  E=   0.233485 au      6.353 eV    51244.1 cm**-1 <S**2> =   0.000000 Mult 1
    31a ->  35a  :     0.968313 (c=  0.98402889)
    32a ->  35a  :     0.012912 (c=  0.11363150)

STATE  5:  E=   0.245187 au      6.672 eV    53812.3 cm**-1 <S**2> =   0.000000 Mult 1
    32a ->  36a  :     0.984195 (c=  0.99206587)

Storing amplitudes in GBW file ... 
... GBW file created

-----------------------------
TD-DFT/TDA-EXCITATION SPECTRA
-----------------------------

Center of mass = (  0.1760,  0.6344,  1.2224)
Generating CIS transition densities           ... done

----------------------------------------------------------------------------------------------------
                     ABSORPTION SPECTRUM VIA TRANSITION ELECTRIC DIPOLE MOMENTS    
----------------------------------------------------------------------------------------------------
     Transition      Energy     Energy  Wavelength fosc(D2)      D2        DX        DY        DZ   
                      (eV)      (cm-1)    (nm)                 (au**2)    (au)      (au)      (au)  
----------------------------------------------------------------------------------------------------
  0-1A  ->  1-1A    5.058013   40795.6   245.1   0.042446081   0.34253  -0.02067  -0.17302  -0.55872
  0-1A  ->  2-1A    5.710124   46055.3   217.1   0.000545334   0.00390  -0.06233   0.00346   0.00096
  0-1A  ->  3-1A    5.964206   48104.6   207.9   0.018337688   0.12550  -0.00045   0.13739  -0.32653
  0-1A  ->  4-1A    6.353458   51244.1   195.1   0.000000362   0.00000  -0.00026  -0.00150  -0.00016
  0-1A  ->  5-1A    6.671870   53812.3   185.8   0.000796046   0.00487   0.06967  -0.00238  -0.00328

----------------------------------------------------------------------------------------------------
                     ABSORPTION SPECTRUM VIA TRANSITION VELOCITY DIPOLE MOMENTS    
----------------------------------------------------------------------------------------------------
     Transition      Energy     Energy  Wavelength fosc(P2)      P2        PX        PY        PZ   
                      (eV)      (cm-1)    (nm)                 (au**2)    (au)      (au)      (au)  
----------------------------------------------------------------------------------------------------
  0-1A  ->  1-1A    5.058013   40795.6   245.1   0.000252513   0.00007   0.00026   0.00750  -0.00375
  0-1A  ->  2-1A    5.710124   46055.3   217.1   0.007112435   0.00224  -0.04725   0.00234   0.00103
  0-1A  ->  3-1A    5.964206   48104.6   207.9   0.001149220   0.00038   0.00073   0.00659   0.01827
  0-1A  ->  4-1A    6.353458   51244.1   195.1   0.002686649   0.00094  -0.03063   0.00154   0.00066
  0-1A  ->  5-1A    6.671870   53812.3   185.8   0.009886827   0.00364  -0.06021   0.00295   0.00144

------------------------------------------------------------------------------------------
                     CD SPECTRUM VIA TRANSITION ELECTRIC DIPOLE MOMENTS    
------------------------------------------------------------------------------------------
     Transition      Energy     Energy  Wavelength    R        MX        MY        MZ   
                      (eV)      (cm-1)    (nm)   (1e40*cgs)   (au)      (au)      (au)  
------------------------------------------------------------------------------------------
  0-1A  ->  1-1A    5.058013   40795.6   245.1    0.06889  -0.14543   0.00719   0.00341
  0-1A  ->  2-1A    5.710124   46055.3   217.1    0.02769   0.00004  -0.04878   0.11741
  0-1A  ->  3-1A    5.964206   48104.6   207.9   -0.01613  -0.09046   0.00462   0.00197
  0-1A  ->  4-1A    6.353458   51244.1   195.1   -0.05415  -0.00441  -0.06995  -0.05769
  0-1A  ->  5-1A    6.671870   53812.3   185.8    0.24818   0.00124  -0.07632   0.24210

------------------------------------------------------------------------------------------
                     CD SPECTRUM VIA TRANSITION VELOCITY DIPOLE MOMENTS    
------------------------------------------------------------------------------------------
     Transition      Energy     Energy  Wavelength    R        MX        MY        MZ   
                      (eV)      (cm-1)    (nm)   (1e40*cgs)   (au)      (au)      (au)  
------------------------------------------------------------------------------------------
  0-1A  ->  1-1A    5.058013   40795.6   245.1    0.00756  -0.14543   0.00719   0.00341
  0-1A  ->  2-1A    5.710124   46055.3   217.1    0.01033   0.00004  -0.04878   0.11741
  0-1A  ->  3-1A    5.964206   48104.6   207.9   -0.00006  -0.09046   0.00462   0.00197
  0-1A  ->  4-1A    6.353458   51244.1   195.1   -0.02229  -0.00441  -0.06995  -0.05769
  0-1A  ->  5-1A    6.671870   53812.3   185.8    0.09326   0.00124  -0.07632   0.24210

Total run time:        8.304 sec

           *** ORCA-CIS/TD-DFT FINISHED WITHOUT ERROR ***
-----------------------
CIS/TD-DFT TOTAL ENERGY
-----------------------

    E(SCF)  =   -766.974050314 Eh
    DE(CIS) =      0.185878568 Eh (Root  1)
    ----------------------------- ---------
    E(tot)  =   -766.788171747 Eh


Maximum memory used throughout the entire CIS-calculation: 64.3 MB
=> NOW LEAVING ORCA_CIS

-------------------------   --------------------
FINAL SINGLE POINT ENERGY      -766.788171746764
-------------------------   --------------------



           ************************************************************
           *        Program running with 20 parallel MPI-processes    *
           *              working on a common directory               *
           ************************************************************

------------------------------------------------------------------------------
                              ORCA PROPERTY CALCULATIONS
------------------------------------------------------------------------------

GBWName                                 ... B3LYP_excited.gbw
Number of atoms                         ...     13
Number of basis functions               ...    284
Max core memory                         ...   4096 MB

Electric properties:
Dipole moment                           ... YES
Quadrupole moment                       ...  NO
Static polarizability (Dipole/Dipole)   ...  NO
Static polarizability (Dipole/Quad.)    ...  NO
Static polarizability (Quad./Quad.)     ...  NO
Static polarizability (Velocity)        ...  NO
Static hyperpolarizability              ...  NO

Atomic electric properties:
Dipole moment                           ...  NO
Quadrupole moment                       ...  NO
Static polarizability                   ...  NO

Choice of electric origin               ... Center of mass
Position of electric origin             ...     0.175988     0.634372     1.222384

General magnetic properties:
Magnetizability                         ...  NO

EPR properties:
g-Tensor (aka g-matrix)                 ...  NO
Zero-Field splitting spin-orbit         ...  NO
Zero-field splitting spin-spin          ...  NO
Hyperfine couplings                     ...  NO (   0 nuclei)
Quadrupole couplings                    ...  NO (   0 nuclei)
Contact density                         ...  NO (   0 nuclei)

NMR properties:
Chemical shifts                         ...  NO (   0 nuclei)
Spin-rotation constants                 ...  NO (   0 nuclei)
Spin-spin couplings                     ...  NO (   0 nuclei,    0 pairs)

Choice of magnetic origin               ... GIAO
Position of magnetic origin             ...     0.000000     0.000000     0.000000

Properties with geometric perturbations:
SCF Hessian                             ...  NO
IR spectrum                             ...  NO
VCD spectrum                            ...  NO
X-ray spectroscopy properties:
SCF XES/XAS/RIXS spectra                ...  NO

SCF SOC stabilization energy            ...  NO
Diagonal Born-Oppenheimer correction    ...  NO

-------------
DIPOLE MOMENT
-------------

Method             : SCF
Type of density    : Electron Density
Multiplicity       :   1
Irrep              :   0
Energy             :  -766.9740503143543719 Eh
Basis              : AO
                                X                 Y                 Z
Electronic contribution:      0.405514400       5.132236152       7.056037560
Nuclear contribution   :     -0.421208509      -5.477092884      -7.054904570
                        -----------------------------------------
Total Dipole Moment    :     -0.015694109      -0.344856732       0.001132991
                        -----------------------------------------
Magnitude (a.u.)       :      0.345215519
Magnitude (Debye)      :      0.877468115



--------------------
Rotational spectrum 
--------------------
 
Rotational constants in cm-1:             0.099746             0.051150             0.033811 
Rotational constants in MHz :          2990.296193          1533.424605          1013.633281 

Dipole components along the rotational axes: 
x,y,z [a.u.] :    -0.211563    -0.272788    -0.001306 
x,y,z [Debye]:    -0.537749    -0.693372    -0.003321 

 

Dipole moment calculation done in   0.0 sec 

Maximum memory used throughout the entire PROP-calculation: 11.9 MB

--------------------------------
SUGGESTED CITATIONS FOR THIS RUN
--------------------------------

Below you find a list of papers that are relevant to this ORCA run
We neither can nor want to force you to cite these papers, but we appreciate if you do
You receive ORCA, which is the product of decades of hard work by many enthusiastic individuals, for free
The only thing we kindly ask in return is that you cite our papers,
We deeply appreciate it, if you show your appreciation for ORCA by not just citing the generic ORCA reference.

Please note that relegating all ORCA citations to the supporting information does *not* help us.
SI sections are not indexed - citations you put there will not count into any citation statistics
But we need these citations in order to attract the funding resources that allow us to do what we are doing

Therefore, if you are a happy ORCA user, please consider citing a few of the papers listed below in the main body of your paper

In addition to the list printed below, the program has created the file B3LYP_excited.bibtex that contains the list in bibtex format
You can import this file easily into all common literature databanks and citation aid programs


List of essential papers. We consider these as the minimum necessary citations

  1. Neese, F.
     Software update: the ORCA program system, version 6.0
     WIRES Comput. Molec. Sci. 2025 15(1), e70019
     doi.org/10.1002/wcms.7019

List of papers to cite with high priority. The work reported in these papers was absolutely
necessary for this run to complete.
Our perspective: the developers of density functionals and basis sets usually get cited in chemistry papers
Good! But without the algorithms to do something with them, the functionals or basis sets would not do anything.
Hence, in our opinion, the algorithm design and method developments papers are equally worthy of getting cited

  1. Neese, F.; Olbrich, G.
     Efficient use of the resolution of the identity approximation in time-dependent density functional calculations with hybrid density functionals
     Chem. Phys. Lett. 2002 362 , 170-178
     doi.org/10.1016/s0009-2614(02)01053-9
  2. Neese, F.
     An improvement of the resolution of the identity approximation for the formation of the Coulomb matrix
     J. Comp. Chem. 2003 24(14), 1740-1747
     doi.org/10.1002/jcc.10318
  3. Neese, F.; Wennmohs, F.; Hansen, A.; Becker, U.
     Efficient, approximate and parallel Hartree-Fock and hybrid DFT calculations. A 'chain-of-spheres' algorithm for the Hartree-Fock exchange
     Chem. Phys. 2009 356(1-3), 98-109
     doi.org/10.1016/j.chemphys.2008.10.036
  4. Helmich-Paris, B.; de Souza, B.; Neese, F.; Izsák, R.
     An improved chain of spheres for exchange algorithm
     J. Chem. Phys. 2021 155(10), 104109
     doi.org/10.1063/5.0058766
  5. Neese, F.
     The SHARK Integral Generation and Digestion System
     J. Comp. Chem. 2022 44(3), 381
     doi.org/10.1002/jcc.26942

List of suggested additional citations. These are papers that are important in the 'surrounding' of 
of this run, or papers that preceded the highly important papers. If you like your results we are grateful for a citation.

  1. Izsak, R.; Neese, F.
     An overlap fitted chain of spheres exchange method
     J. Chem. Phys. 2011 135 , 144105
     doi.org/10.1063/1.3646921
  2. Izsak, R.; Hansen, A.; Neese, F.
     The resolution of identity and chain of spheres approximations for the LPNO-CCSD singles Fock term
     Molec. Phys. 2012 110 , 2413-2417
     doi.org/10.1080/00268976.2012.687466
  3. Neese, F.
     The ORCA program system
     WIRES Comput. Molec. Sci. 2012 2(1), 73-78
     doi.org/10.1002/wcms.81
  4. Izsak, R.; Neese, F.; Klopper, W.
     Robust fitting techniques in the chain of spheres approximation to the Fock exchange: The role of the complementary space
     J. Chem. Phys. 2013 139 , 
     doi.org/10.1063/1.4819264
  5. Neese, F.
     Software update: the ORCA program system, version 4.0
     WIRES Comput. Molec. Sci. 2018 8(1), 1-6
     doi.org/10.1002/wcms.1327
  6. Neese, F.; Wennmohs, F.; Becker, U.; Riplinger, C.
     The ORCA quantum chemistry program package
     J. Chem. Phys. 2020 152(22), 224108
     doi.org/10.1063/5.0004608
  7. Neese, F.
     Software update: The ORCA program system—Version 5.0
     WIRES Comput. Molec. Sci. 2022 12(1), e1606
     doi.org/10.1002/wcms.1606

List of optional additional citations

  1. Neese, F.
     Approximate second-order SCF convergence for spin unrestricted wavefunctions
     Chem. Phys. Lett. 2000 325(1-3), 93-98
     doi.org/10.1016/s0009-2614(00)00662-x

Timings for individual modules:

Sum of individual times          ...       19.106 sec (=   0.318 min)
Startup calculation              ...        0.704 sec (=   0.012 min)   3.7 %
SCF iterations                   ...        9.603 sec (=   0.160 min)  50.3 %
Property integrals               ...        0.223 sec (=   0.004 min)   1.2 %
Property calculations            ...        0.147 sec (=   0.002 min)   0.8 %
CIS module                       ...        8.429 sec (=   0.140 min)  44.1 %
                             ****ORCA TERMINATED NORMALLY****
TOTAL RUN TIME: 0 days 0 hours 0 minutes 19 seconds 341 msec
