
                                 *****************
                                 * O   R   C   A *
                                 *****************

                                            #,                                       
                                            ###                                      
                                            ####                                     
                                            #####                                    
                                            ######                                   
                                           ########,                                 
                                     ,,################,,,,,                         
                               ,,#################################,,                 
                          ,,##########################################,,             
                       ,#########################################, ''#####,          
                    ,#############################################,,   '####,        
                  ,##################################################,,,,####,       
                ,###########''''           ''''###############################       
              ,#####''   ,,,,##########,,,,          '''####'''          '####       
            ,##' ,,,,###########################,,,                        '##       
           ' ,,###''''                  '''############,,,                           
         ,,##''                                '''############,,,,        ,,,,,,###''
      ,#''                                            '''#######################'''  
     '                                                          ''''####''''         
             ,#######,   #######,   ,#######,      ##                                
            ,#'     '#,  ##    ##  ,#'     '#,    #''#        ,####,    ,#,          
            ##       ##  ##   ,#'  ##            #'  '#       #'       ,# #          
            ##       ##  #######   ##           ,######,      #####,      #          
            '#,     ,#'  ##    ##  '#,     ,#' ,#      #,     #,   #      #          
             '#######'   ##     ##  '#######'  #'      '#     '####' #    #          



                #########################################################
                #                        -***-                          #
                #          Department of theory and spectroscopy        #
                #                                                       #
                #                      Frank Neese                      #
                #                                                       #
                #     Directorship, Architecture, Infrastructure        #
                #                    SHARK, DRIVERS                     #
                #        Core code/Algorithms in most modules           #
                #                                                       #
                #        Max Planck Institute fuer Kohlenforschung      #
                #                Kaiser Wilhelm Platz 1                 #
                #                 D-45470 Muelheim/Ruhr                 #
                #                      Germany                          #
                #                                                       #
                #                  All rights reserved                  #
                #                        -***-                          #
                #########################################################


                         Program Version 6.1.0  -  RELEASE   -


 With contributions from (in alphabetic order):
[Max-Planck-Institut fuer Kohlenforschung]                               
  Daniel Aravena         : Magnetic Suceptibility                        
  Michael Atanasov       : Ab Initio Ligand Field Theory (pilot matlab implementation)
  Alexander A. Auer      : GIAO ZORA, VPT2 properties, NMR spectrum      
  Ute Becker             : All parallelization in ORCA, NUMFREQ, NUMCALC 
  Giovanni Bistoni       : ED, misc. LED, open-shell LED, HFLD           
  Dmytro Bykov           : pre 5.0 version of the SCF Hessian            
  Marcos Casanova-Páez   : Triplet and SCS-CIS(D). UHF-(DLPNO)-IP/EA/STEOM-CCSD. UHF-CVS-IP/STEOM-CCSD   
  Vijay G. Chilkuri      : MRCI spin determinant printing, contributions to CSF-ICE 
  Pauline Colinet        : FMM embedding                                 
  Dipayan Datta          : RHF DLPNO-CCSD density                        
  Achintya Kumar Dutta   : EOM-CC, STEOM-CC                              
  Nicolas Foglia         : Exact transition moments, OPA infrastructure, MCD improvements    
  Dmitry Ganyushin       : Spin-Orbit,Spin-Spin,Magnetic field MRCI      
  Miquel Garcia-Rates    : C-PCM and meta-GGA Hessian, CCSD/C-PCM, Gaussian charge scheme 
  Tiago L. C. Gouveia    : GS-ROHF, GS-ROCIS                             
  Yang Guo               : DLPNO-NEVPT2, F12-NEVPT2, CIM, IAO-localization        
  Andreas Hansen         : Spin unrestricted coupled pair/coupled cluster methods 
  Ingolf Harden          : AUTO-CI MPn and infrastructure                
  Benjamin Helmich-Paris : MC-RPA, TRAH-(SCF,CASSCF), AVAS, COSX integrals, SCF dyn. polar., MC-PDFT, srDFT 
  Lee Huntington         : MR-EOM, pCC                                   
  Robert Izsak           : Overlap fitted RIJCOSX, COSX-SCS-MP3, EOM     
  Riya Kayal             : Wick's Theorem for AUTO-CI, AUTO-CI UHF-CCSDT 
  Emily Kempfer          : AUTO-CI RHF CISDT and CCSDT, approximate NEVPT4
  Christian Kollmar      : KDIIS, OOCD, Brueckner-CCSD(T), CCSD density, CASPT2, CASPT2-K, improved NEVPT2 
  Axel Koslowski         : Symmetry handling                             
  Simone Kossmann        : meta-GGA functionals, TD-DFT gradient, OOMP2, (MP2 Hessian; deprecated post 5.0) 
  Lucas Lang             : DCDCAS, Hyperfine gauge corrections, ICE-SOC+SSC
  Marvin Lechner         : AUTO-CI (C++ implementation), FIC-MRCC        
  Spencer Leger          : CASSCF response                               
  Dagmar Lenk            : GEPOL surface, SMD, ORCA-2-JSON               
  Dimitrios Liakos       : Extrapolation schemes; Compound Job, Property file
  Dimitrios Manganas     : Further ROCIS development; embedding schemes. LFT, Crystal Embedding 
  Dimitrios Pantazis     : SARC Basis sets                               
  Anastasios Papadopoulos: AUTO-CI, single reference methods and gradients 
  Taras Petrenko         : pre 6.0 DFT Hessian and TD-DFT gradient,  ECA, NRVS 
  Petra Pikulova         : Analytic Raman intensities                    
  Peter Pinski           : DLPNO-MP2, DLPNO-MP2 Gradient                 
  Shashank Vittal Rao    : ES-AILFT, MagRelax                            
  Christoph Reimann      : Effective Core Potentials                     
  Marius Retegan         : Local ZFS, SOC                                
  Christoph Riplinger    : Optimizer, TS searches, QM/MM, DLPNO-CCSD(T), (RO)-DLPNO pert. Triples 
  Michael Roemelt        : Original ROCIS implementation, recursive CI coupling coefficients
  Masaaki Saitow         : Open-shell DLPNO-CCSD energy and density      
  Barbara Sandhoefer     : DKH picture change effects                    
  Yorick L. A. Schmerwitz: GMF and freeze-and-release deltaSCF, NEB S-IDPP initial path                    
  Kantharuban Sivalingam : CASSCF convergence/infrastructure, NEVPT2, NEVPT3, NEVPT4(SD), FIC-MRCI and CEPA variants
  Bernardo de Souza      : ESD, SOC TD-DFT                               
  Georgi L. Stoychev     : AutoAux, RI-MP2 NMR, DLPNO-MP2 response, X2C  
  Van Anh Tran           : RI-MP2 g-tensors                              
  Willem Van den Heuvel  : Paramagnetic NMR                              
  Zikuan Wang            : NOTCH, Electric field optimization            
  Frank Wennmohs         : Technical directorship and infrastructure     
  Hang Xu                : AUTO-CI-Response properties                   
                                                                         
[FACCTs GmbH]                                                            
  Markus Bursch, Nicolas Foglia, Miquel Garcia-Rates, Ingolf Harden, Hagen Neugebauer, Anastasios Papadopoulos, 
  Christoph Riplinger, Bernardo de Souza, Georgi L. Stoychev                                                    
                                                                 
  APM, various basis sets, CI-OPT, improved COSX, DLPNO-Multilevel,           
  DOCKER, DRACO, updates on ESD, Fragmentator, GOAT, IRC, LR-CPCM, L-BFGS, MBIS, meta-GGA TD-DFT gradient, ML-optimized integration grids, 
  MM, NACMEs, nearIR, NEB, NEB-TS, NL-DFT gradient (VV10), 2- and 3-layer-ONIOM, interface openCOSMO-RS, QMMM,   
  Crystal-QMMM, RESP, rigid body optimization, SF, symmetry and pop. for TD-DFT, various functionals, SOLVATOR                                   
                                                                         
[Other institutions]                                                     
  V. Asgeirsson          : NEB                                           
  Christoph Bannwarth    : sTDA-DFT, sTD-DFT, PBEh-3c, B97-3c, D3        
  Giovanni Bistoni       : ETS/NOCV, ADLD/ADEX, COVALED                  
  Martin Brehm           : Molecular dynamics                            
  Ronald Cardenas        : ETS/NOCV                                      
  Martina Colucci        : COVALED                                       
  Sebastian Ehlert       : rSCAN, r2SCAN, r2SCAN-3c, D4, dhf basis sets  
  Marvin Friede          : D4 for Fr, Ra, Ac-Lr                          
  Lars Goerigk           : TD-DFT with DH, B97 family of functionals     
  Stefan Grimme          : VdW corrections, initial TS optimization, DFT functionals, gCP, sTDA/sTD-DF 
  Waldemar Hujo          : DFT-NL                                        
  H. Jonsson             : NEB                                           
  Holger Kruse           : gCP                                           
  Marcel Mueller         : wB97X-3c, vDZP basis set                      
  Hagen Neugebauer       : wr2SCAN, Native XTB                           
  Gianluca Regni         : ADLD/ADEX                                     
  Tobias Risthaus        : pre 6.0 range-separated hybrid DFT and stability analysis
  Lukas Wittmann         : regularized MP2, r2SCAN double-hybrids, wr2SCAN        
                                                                         
We gratefully acknowledge several colleagues who have allowed us to      
interface, adapt or use parts of their codes:                            
  Ed Valeev, F. Pavosevic, A. Kumar             : LibInt (2-el integral package), F12 methods 
  Garnet Chan, S. Sharma, J. Yang, R. Olivares  : DMRG                   
  Ulf Ekstrom                                   : XCFun DFT Library      
  Mihaly Kallay                                 : mrcc  (arbitrary order and MRCC methods)
  Frank Weinhold                                : gennbo (NPA and NBO analysis)           
  Simon Mueller                                 : openCOSMO-RS                            
  Christopher J. Cramer and Donald G. Truhlar   : smd solvation model                     
  S Lehtola, MJT Oliveira, MAL Marques          : LibXC Library                           
  Liviu Ungur et al                             : ANISO software                          


 Your calculation uses the libint2 library for the computation of 2-el integrals
 For citations please refer to: http://libint.valeyev.net

 Your ORCA version has been built with support for libXC version: 7.0.0
 For citations please refer to: https://libxc.gitlab.io

 This ORCA versions uses:
   CBLAS   interface :  Fast vector & matrix operations
   LAPACKE interface :  Fast linear algebra routines
   Shared memory     :  Shared parallel matrices


  ***********************************
  * Starting time: Fri Sep 12 16:26:10 2025
  * Host name:     DESKTOP-SI45VP7
  * Process ID:    29184
  * Working dir.:  C:\orca_jobs\ex2
  ***********************************

================================================================================

----- Orbital basis set information -----
Your calculation utilizes the basis: def2-TZVP
   F. Weigend and R. Ahlrichs, Phys. Chem. Chem. Phys. 7, 3297 (2005).

----- AuxJ basis set information -----
Your calculation utilizes the auxiliary basis: def2/J
   H-Rn: F. Weigend, Phys. Chem. Chem. Phys. 8, 1057 (2006).
   Fr-Lr: K. Eichkorn, F. Weigend, O. Treutler, R. Ahlrichs; Theor. Chem. Acc. 97, 119 (1997).

================================================================================
                                        WARNINGS
                       Please study these warnings very carefully!
================================================================================


WARNING: CIS/ROCIS methods need fully converged wavefunctions
  ===> : Setting SCFConvForced true
         You can overwrite this default with %scf ConvForced false 


================================================================================
                                       INPUT FILE
================================================================================
NAME = B3LYP(water)_excited.INP
|  1> ! B3LYP def2-TZVP RIJCOSX def2/J TightSCF CPCM(Water)
|  2> 
|  3> %pal 
|  4>   nprocs 20
|  5> end
|  6> 
|  7> %scf
|  8>   MaxIter   1000
|  9> end
| 10> 
| 11> %output
| 12>   XYZFile true
| 13> end
| 14> 
| 15> %TDDFT
| 16>    NROOTS   5
| 17> end
| 18> 
| 19> * xyz 0 1
| 20>   C          -0.02944983368378     -1.85921037165536      0.00360216718185
| 21>   C           0.03315596024693     -1.12185825794863      1.17999507942510
| 22>   C           0.10043785932372      0.26358159655638      1.11908854459987
| 23>   C           0.10693973908754      0.93732968397298     -0.10607138917940
| 24>   C           0.04356479632666      0.18536269635920     -1.27964600413135
| 25>   C          -0.02404962902780     -1.19984142264626     -1.22371817362163
| 26>   H          -0.08217745604446     -2.93904228877050      0.04924876427089
| 27>   H           0.03008514234885     -1.61307713243223      2.14405037351148
| 28>   H           0.04847101544400      0.70837755776624     -2.22787372773601
| 29>   H          -0.07277603485231     -1.76663530412321     -2.14498772151101
| 30>   O           0.17159041483246      2.28829446176539     -0.21031673685147
| 31>   H           0.21283491774628      2.68692117778965      0.67280920692612
| 32>   Cl          0.17912633825192      1.20661199336635      2.59561917711557
| 33> *
| 34> 
| 35> 
| 36>                          ****END OF INPUT****
================================================================================

                       ****************************
                       * Single Point Calculation *
                       ****************************

---------------------------------
CARTESIAN COORDINATES (ANGSTROEM)
---------------------------------
  C     -0.029450   -1.859210    0.003602
  C      0.033156   -1.121858    1.179995
  C      0.100438    0.263582    1.119089
  C      0.106940    0.937330   -0.106071
  C      0.043565    0.185363   -1.279646
  C     -0.024050   -1.199841   -1.223718
  H     -0.082177   -2.939042    0.049249
  H      0.030085   -1.613077    2.144050
  H      0.048471    0.708378   -2.227874
  H     -0.072776   -1.766635   -2.144988
  O      0.171590    2.288294   -0.210317
  H      0.212835    2.686921    0.672809
  Cl     0.179126    1.206612    2.595619

----------------------------
CARTESIAN COORDINATES (A.U.)
----------------------------
  NO LB      ZA    FRAG     MASS         X           Y           Z
   0 C     6.0000    0    12.011   -0.055652   -3.513398    0.006807
   1 C     6.0000    0    12.011    0.062656   -2.120005    2.229868
   2 C     6.0000    0    12.011    0.189800    0.498097    2.114771
   3 C     6.0000    0    12.011    0.202087    1.771296   -0.200446
   4 C     6.0000    0    12.011    0.082326    0.350285   -2.418180
   5 C     6.0000    0    12.011   -0.045447   -2.267372   -2.312492
   6 H     1.0000    0     1.008   -0.155293   -5.553985    0.093067
   7 H     1.0000    0     1.008    0.056853   -3.048274    4.051668
   8 H     1.0000    0     1.008    0.091597    1.338640   -4.210071
   9 H     1.0000    0     1.008   -0.137527   -3.338457   -4.053439
  10 O     8.0000    0    15.999    0.324259    4.324250   -0.397441
  11 H     1.0000    0     1.008    0.402200    5.077545    1.271425
  12 Cl   17.0000    0    35.453    0.338500    2.280166    4.905009

--------------------------------
INTERNAL COORDINATES (ANGSTROEM)
--------------------------------
 C      0   0   0     0.000000000000     0.00000000     0.00000000
 C      1   0   0     1.389787001305     0.00000000     0.00000000
 C      2   1   0     1.388409179737   119.63458078     0.00000000
 C      3   2   1     1.398211580225   121.29854954     0.00000000
 C      4   3   2     1.395259155387   118.49648101     0.00000000
 C      5   4   3     1.387980577692   120.41015731     0.00000000
 H      1   2   3     1.082081689710   119.73145659   180.01501964
 H      2   1   3     1.081992616716   120.87700724   179.99332682
 H      5   4   3     1.082914785221   118.42467320   179.98776590
 H      6   5   4     1.082759043635   119.36242710   179.99121609
 O      4   3   2     1.356522256810   123.19211355   180.00134304
 H     11   4   3     0.969801938708   109.96237307     0.13285045
 Cl     3   2   1     1.753750528091   120.12001052   179.97134407

---------------------------
INTERNAL COORDINATES (A.U.)
---------------------------
 C      0   0   0     0.000000000000     0.00000000     0.00000000
 C      1   0   0     2.626316816951     0.00000000     0.00000000
 C      2   1   0     2.623713111526   119.63458078     0.00000000
 C      3   2   1     2.642236963903   121.29854954     0.00000000
 C      4   3   2     2.636657689527   118.49648101     0.00000000
 C      5   4   3     2.622903171040   120.41015731     0.00000000
 H      1   2   3     2.044838048083   119.73145659   180.01501964
 H      2   1   3     2.044669724518   120.87700724   179.99332682
 H      5   4   3     2.046412370443   118.42467320   179.98776590
 H      6   5   4     2.046118061496   119.36242710   179.99121609
 O      4   3   2     2.563455559940   123.19211355   180.00134304
 H     11   4   3     1.832660068304   109.96237307     0.13285045
 Cl     3   2   1     3.314108205312   120.12001052   179.97134407

---------------------
BASIS SET INFORMATION
---------------------
There are 4 groups of distinct atoms

 Group   1 Type C   : 11s6p2d1f contracted to 5s3p2d1f pattern {62111/411/11/1}
 Group   2 Type H   : 5s1p contracted to 3s1p pattern {311/1}
 Group   3 Type O   : 11s6p2d1f contracted to 5s3p2d1f pattern {62111/411/11/1}
 Group   4 Type Cl  : 14s9p3d1f contracted to 5s5p2d1f pattern {73211/51111/21/1}

Atom   0C    basis set group =>   1
Atom   1C    basis set group =>   1
Atom   2C    basis set group =>   1
Atom   3C    basis set group =>   1
Atom   4C    basis set group =>   1
Atom   5C    basis set group =>   1
Atom   6H    basis set group =>   2
Atom   7H    basis set group =>   2
Atom   8H    basis set group =>   2
Atom   9H    basis set group =>   2
Atom  10O    basis set group =>   3
Atom  11H    basis set group =>   2
Atom  12Cl   basis set group =>   4
---------------------------------
AUXILIARY/J BASIS SET INFORMATION
---------------------------------
There are 4 groups of distinct atoms

 Group   1 Type C   : 12s5p4d2f1g contracted to 6s4p3d1f1g pattern {711111/2111/211/2/1}
 Group   2 Type H   : 5s2p1d contracted to 3s1p1d pattern {311/2/1}
 Group   3 Type O   : 12s5p4d2f1g contracted to 6s4p3d1f1g pattern {711111/2111/211/2/1}
 Group   4 Type Cl  : 14s5p5d2f1g contracted to 8s4p3d1f1g pattern {71111111/2111/311/2/1}

Atom   0C    basis set group =>   1
Atom   1C    basis set group =>   1
Atom   2C    basis set group =>   1
Atom   3C    basis set group =>   1
Atom   4C    basis set group =>   1
Atom   5C    basis set group =>   1
Atom   6H    basis set group =>   2
Atom   7H    basis set group =>   2
Atom   8H    basis set group =>   2
Atom   9H    basis set group =>   2
Atom  10O    basis set group =>   3
Atom  11H    basis set group =>   2
Atom  12Cl   basis set group =>   4


           ************************************************************
           *        Program running with 20 parallel MPI-processes    *
           *              working on a common directory               *
           ************************************************************
------------------------------------------------------------------------------
                             ORCA STARTUP CALCULATIONS
                           -- RI-GTO INTEGRALS CHOSEN --
------------------------------------------------------------------------------
------------------------------------------------------------------------------
                   ___                                                        
                  /   \      - P O W E R E D   B Y -                         
                 /     \                                                     
                 |  |  |   _    _      __       _____    __    __             
                 |  |  |  | |  | |    /  \     |  _  \  |  |  /  |          
                  \  \/   | |  | |   /    \    | | | |  |  | /  /          
                 / \  \   | |__| |  /  /\  \   | |_| |  |  |/  /          
                |  |  |   |  __  | /  /__\  \  |    /   |      \           
                |  |  |   | |  | | |   __   |  |    \   |  |\   \          
                \     /   | |  | | |  |  |  |  | |\  \  |  | \   \       
                 \___/    |_|  |_| |__|  |__|  |_| \__\ |__|  \__/        
                                                                              
                      - O R C A' S   B I G   F R I E N D -                    
                                      &                                       
                       - I N T E G R A L  F E E D E R -                       
                                                                              
 v1 FN, 2020, v2 2021, v3 2022-2024                                           
------------------------------------------------------------------------------


----------------------
SHARK INTEGRAL PACKAGE
----------------------

Number of atoms                             ...     13
Number of basis functions                   ...    284
Number of shells                            ...    110
Maximum angular momentum                    ...      3
Integral batch strategy                     ... SHARK/LIBINT Hybrid
RI-J (if used) integral strategy            ... SPLIT-RIJ (Revised 2003 algorithm where possible)
Printlevel                                  ...      1
Contraction scheme used                     ... SEGMENTED contraction
Prescreening option                         ... SCHWARTZ
   Thresh                                   ... 2.500e-11
   Tcut                                     ... 2.500e-12
   Tpresel                                  ... 2.500e-12 
Coulomb Range Separation                    ... NOT USED
Exchange Range Separation                   ... NOT USED
Multipole approximations                    ... NOT USED
Finite Nucleus Model                        ... NOT USED
CABS basis                                  ... NOT available
Auxiliary Coulomb fitting basis             ... AVAILABLE
   # of basis functions in Aux-J            ...    449
   # of shells in Aux-J                     ...    147
   Maximum angular momentum in Aux-J        ...      4
Auxiliary J/K fitting basis                 ... NOT available
Auxiliary Correlation fitting basis         ... NOT available
Auxiliary 'external' fitting basis          ... NOT available

Checking pre-screening integrals            ... done (  0.0 sec) Dimension = 110
   => SHARK Basis and OBASIS are compatible. Storing Pre-screening
Shell pair information
Shell pair cut-off parameter TPreSel        ...   2.5e-12
Total number of shell pairs                 ...      6105
Shell pairs after pre-screening             ...      5614
Total number of primitive shell pairs       ...     19708
Primitive shell pairs kept                  ...     13478
          la=0 lb=0:   1339 shell pairs
          la=1 lb=0:   1566 shell pairs
          la=1 lb=1:    469 shell pairs
          la=2 lb=0:    829 shell pairs
          la=2 lb=1:    476 shell pairs
          la=2 lb=2:    132 shell pairs
          la=3 lb=0:    404 shell pairs
          la=3 lb=1:    237 shell pairs
          la=3 lb=2:    126 shell pairs
          la=3 lb=3:     36 shell pairs

Checking whether 4 symmetric matrices of dimension 284 fit in memory
:Max Core in MB      =   4096.00
 MB in use           =      9.07
 MB left             =   4086.93
 MB needed           =      1.24
 Data fit in memory  = YES
Calculating RI/J V-Matrix + Cholesky decomp.... done (  0.0 sec)
Calculating Nuclear repulsion               ... done (  0.0 sec) ENN=    406.007337584811 Eh

Diagonalization of the overlap matrix:
Smallest eigenvalue                        ... 1.051e-05
Time for diagonalization                   ...    0.004 sec
Threshold for overlap eigenvalues          ... 1.000e-07
Number of eigenvalues below threshold      ... 0
Time for construction of square roots      ...    0.003 sec
Total time needed                          ...    0.012 sec

-------------------
DFT GRID GENERATION
-------------------

General Integration Accuracy     IntAcc      ... 4.388
Radial Grid Type                 RadialGrid  ... OptM3 with GC (2021)
Angular Grid (max. ang.)         AngularGrid ... 4 (Lebedev-302)
Angular grid pruning method      GridPruning ... 4 (adaptive)
Weight generation scheme         WeightScheme... mBecke (2022)
Basis function cutoff            BFCut       ... 1.0000e-11
Integration weight cutoff        WCut        ... 1.0000e-14
Partially contracted basis set               ... off
Rotationally invariant grid construction     ... off
Angular grids for H and He will be reduced by one unit

Total number of grid points                  ...    65597
Total number of batches                      ...     1031
Average number of points per batch           ...       63
Average number of grid points per atom       ...     5046

--------------------
COSX GRID GENERATION
--------------------

GRIDX 1
-------
General Integration Accuracy     IntAcc      ... 3.816
Radial Grid Type                 RadialGrid  ... OptM3 with GC (2021)
Angular Grid (max. ang.)         AngularGrid ... 1 (Lebedev-50)
Angular grid pruning method      GridPruning ... 4 (adaptive)
Weight generation scheme         WeightScheme... mBecke (2022)
Basis function cutoff            BFCut       ... 1.0000e-11
Integration weight cutoff        WCut        ... 1.0000e-14
Partially contracted basis set               ... on
Rotationally invariant grid construction     ... off
Angular grids for H and He will be reduced by one unit

Total number of grid points                  ...     9407
Total number of batches                      ...       78
Average number of points per batch           ...      120
Average number of grid points per atom       ...      724
UseSFitting                                  ... on

GRIDX 2
-------
General Integration Accuracy     IntAcc      ... 4.020
Radial Grid Type                 RadialGrid  ... OptM3 with GC (2021)
Angular Grid (max. ang.)         AngularGrid ... 2 (Lebedev-110)
Angular grid pruning method      GridPruning ... 4 (adaptive)
Weight generation scheme         WeightScheme... mBecke (2022)
Basis function cutoff            BFCut       ... 1.0000e-11
Integration weight cutoff        WCut        ... 1.0000e-14
Partially contracted basis set               ... on
Rotationally invariant grid construction     ... off
Angular grids for H and He will be reduced by one unit

Total number of grid points                  ...    18420
Total number of batches                      ...      149
Average number of points per batch           ...      123
Average number of grid points per atom       ...     1417
UseSFitting                                  ... on

GRIDX 3
-------
General Integration Accuracy     IntAcc      ... 4.338
Radial Grid Type                 RadialGrid  ... OptM3 with GC (2021)
Angular Grid (max. ang.)         AngularGrid ... 3 (Lebedev-194)
Angular grid pruning method      GridPruning ... 4 (adaptive)
Weight generation scheme         WeightScheme... mBecke (2022)
Basis function cutoff            BFCut       ... 1.0000e-11
Integration weight cutoff        WCut        ... 1.0000e-14
Partially contracted basis set               ... on
Rotationally invariant grid construction     ... off
Angular grids for H and He will be reduced by one unit

Total number of grid points                  ...    41190
Total number of batches                      ...      329
Average number of points per batch           ...      125
Average number of grid points per atom       ...     3168
UseSFitting                                  ... on
Grids setup in   0.5 sec
Initializing property integral containers    ... done (  0.0 sec)

SHARK setup successfully completed in   0.7 seconds

Maximum memory used throughout the entire STARTUP-calculation: 21.7 MB


           ************************************************************
           *        Program running with 20 parallel MPI-processes    *
           *              working on a common directory               *
           ************************************************************
-------------------------------------------------------------------------------
                                 ORCA GUESS
                   Start orbitals & Density for SCF / CASSCF
-------------------------------------------------------------------------------

------------
SCF SETTINGS
------------
Hamiltonian:
 Density Functional     Method          .... DFT(GTOs)
 Exchange Functional    Exchange        .... B88
   X-Alpha parameter    XAlpha          ....  0.666667
   Becke's b parameter  XBeta           ....  0.004200
 Correlation Functional Correlation     .... LYP
 LDA part of GGA corr.  LDAOpt          .... VWN-5
 Gradients option       PostSCFGGA      .... off
 Hybrid DFT is turned on
   Fraction HF Exchange ScalHFX         ....  0.200000
   Scaling of DF-GGA-X  ScalDFX         ....  0.720000
   Scaling of DF-GGA-C  ScalDFC         ....  0.810000
   Scaling of DF-LDA-C  ScalLDAC        ....  1.000000
   Perturbative correction              ....  0.000000
   NL short-range parameter             ....  4.800000
 RI-approximation to the Coulomb term is turned on
   Number of AuxJ basis functions       .... 449
   RIJ-COSX (HFX calculated with COS-X)).... on


General Settings:
 Integral files         IntName         .... B3LYP(water)_excited
 Hartree-Fock type      HFTyp           .... RHF
 Total Charge           Charge          ....    0
 Multiplicity           Mult            ....    1
 Number of Electrons    NEL             ....   66
 Basis Dimension        Dim             ....  284
 Nuclear Repulsion      ENuc            ....    406.0073375848 Eh

Convergence Acceleration:
 AO-DIIS                CNVDIIS         .... on
   Start iteration      DIISMaxIt       ....    12
   Startup error        DIISStart       ....  0.200000
   # of expansion vecs  DIISMaxEq       ....     5
   Bias factor          DIISBfac        ....   1.050
   Max. coefficient     DIISMaxC        ....  10.000
 MO-DIIS                CNVKDIIS        .... off
 Trust-Rad. Augm. Hess. CNVTRAH         .... auto
   Auto Start mean grad. ratio tolernc. ....  1.125000
   Auto Start start iteration           ....    50
   Auto Start num. interpolation iter.  ....    10
   Max. Number of Micro iterations      ....    24
   Max. Number of Macro iterations      .... Maxiter - #DIIS iter
   Number of Davidson start vectors     ....     2
   Converg. threshold    (grad. norm)   ....   1.000e-05
   Grad. Scal. Fac. for Micro threshold ....   0.100
   Minimum threshold for Micro iter.    ....   1.000e-02
   NR start threshold (gradient norm)   ....   1.000e-04
   Initial trust radius                 ....   0.400
   Minimum AH scaling param. (alpha)    ....   1.000
   Maximum AH scaling param. (alpha)    .... 1000.000
   Quad. conv. algorithm                .... NR
   White noise on init. David. guess    .... on
   Maximum white noise                  ....   0.010
   Pseudo random numbers                .... off
   Inactive MOs                         .... canonical
   Orbital update algorithm             .... Taylor
   Preconditioner                       .... Diag
   Full preconditioner red. dimension   ....   250
 SOSCF                 CNVSOSCF           .... on
   Start iteration     SOSCFMaxIt         ....   150
   Startup grad/error  SOSCFStart         ....  0.003300
   Hessian update      SOSCFHessUp        .... L-BFGS
   Autom. constraints  SOSCFAutoConstrain .... off
 Level Shifting         CNVShift        .... on
   Level shift para.    LevelShift      ....    0.2500
   Turn off err/grad.   ShiftErr        ....    0.0010
 Zerner damping         CNVZerner       .... off
 Static damping         CNVDamp         .... on
   Fraction old density DampFac         ....    0.7000
   Max. Damping (<1)    DampMax         ....    0.9800
   Min. Damping (>=0)   DampMin         ....    0.0000
   Turn off err/grad.   DampErr         ....    0.1000

SCF Procedure:
 Maximum # iterations   MaxIter         ....  1000
 SCF integral mode      SCFMode         .... Direct
   Integral package                     .... SHARK and LIBINT hybrid scheme
 Reset frequency        DirectResetFreq ....    20
 Integral Threshold     Thresh          ....  2.500e-11 Eh
 Primitive CutOff       TCut            ....  2.500e-12 Eh

Convergence Tolerance:
 Convergence Check Mode ConvCheckMode   .... Total+1el-Energy
 Convergence forced     ConvForced      .... 1
 Energy Change          TolE            ....  1.000e-08 Eh
 1-El. energy change                    ....  1.000e-05 Eh
 Orbital Gradient       TolG            ....  1.000e-05
 Orbital Rotation angle TolX            ....  1.000e-05
 DIIS Error             TolErr          ....  5.000e-07

------------------------------
INITIAL GUESS: MODEL POTENTIAL
------------------------------
Loading Hartree-Fock densities                     ... done
Calculating cut-offs                               ... done
Initializing the effective Hamiltonian             ... done
Setting up the integral package (SHARK)            ... done
Starting the Coulomb interaction                   ... done (   0.0 sec)
Making the grid                                    ... done (   0.1 sec)
Mapping shells                                     ... done
Starting the XC term evaluation                    ... done (   0.0 sec)
  promolecular density results
     # of electrons  =     65.997737038
     EX              =    -68.080404842
     EC              =     -2.374867773
     EX+EC           =    -70.455272615
Transforming the Hamiltonian                       ... done (   0.0 sec)
Diagonalizing the Hamiltonian                      ... done (   0.0 sec)
Back transforming the eigenvectors                 ... done (   0.0 sec)
Now organizing SCF variables                       ... done
                      ------------------
                      INITIAL GUESS DONE (   0.2 sec)
                      ------------------
             **** ENERGY FILE WAS UPDATED (B3LYP(water)_excited.en.tmp) ****
Finished Guess after   0.3 sec
Maximum memory used throughout the entire GUESS-calculation: 14.0 MB


           ************************************************************
           *        Program running with 20 parallel MPI-processes    *
           *              working on a common directory               *
           ************************************************************

-------------------------------------------------------------------------------------------
                                      ORCA LEAN-SCF
                              memory conserving SCF solver
-------------------------------------------------------------------------------------------

--------------------
CPCM SOLVATION MODEL
--------------------
CPCM parameters:
  Epsilon                                         ...      80.1510
  Refrac                                          ...       1.3328
  Rsolv                                           ...       1.3000
  Surface type                                    ... GAUSSIAN VDW
  Discretization scheme                           ... Constant charge density
    Threshold for H atoms                         ...       5.0000 (charges/Ang^2)
    Threshold for non-H atoms                     ...       5.0000 (charges/Ang^2)
  Epsilon function type                           ...         CPCM
Solvent:                                          ... WATER
Radii:
  Scheme                                          ... Element-dependent radii
  Radius for C  used is    3.8550 Bohr (=   2.0400 Ang.)
  Radius for H  used is    2.4944 Bohr (=   1.3200 Ang.)
  Radius for O  used is    3.4469 Bohr (=   1.8240 Ang.)
  Radius for Cl used is    3.9684 Bohr (=   2.1000 Ang.)
Calculating surface                               ...        done! (  0.0s)
Cavity surface points                             ...         1374
Cavity Volume                                     ...     984.7819
Cavity Surface-area                               ...     553.7793
Calculating surface distance matrix               ...        done! (  0.0s)
Performing Cholesky decomposition & store         ...        done! (  0.0s)
Overall time for CPCM initialization              ...                 0.1s

----------------------------------------D-I-I-S--------------------------------------------
Iteration    Energy (Eh)           Delta-E    RMSDP     MaxDP     DIISErr   Damp  Time(sec)
-------------------------------------------------------------------------------------------
               ***  Starting incremental Fock matrix formation  ***
    1    -766.7829473697614731     0.00e+00  9.70e-03  1.37e-01  2.33e-01  0.700   0.6
    2    -766.8742373394403558    -9.13e-02  9.17e-03  1.44e-01  1.01e-01  0.700   0.5
                               ***Turning on AO-DIIS***
    3    -766.9114004602325849    -3.72e-02  3.55e-03  4.28e-02  3.46e-02  0.700   0.5
    4    -766.9331129844914585    -2.17e-02  5.27e-03  3.71e-02  1.76e-02  0.000   0.4
    5    -766.9806081219290945    -4.75e-02  1.95e-03  2.99e-02  7.17e-03  0.000   0.4
                              *** Initializing SOSCF ***
---------------------------------------S-O-S-C-F--------------------------------------
Iteration    Energy (Eh)           Delta-E    RMSDP     MaxDP     MaxGrad    Time(sec)
--------------------------------------------------------------------------------------
    6    -766.9809115501903989    -3.03e-04  6.07e-04  7.97e-03  1.45e-03     1.2
               *** Restarting incremental Fock matrix formation ***
    7    -766.9809147354850438    -3.19e-06  7.12e-04  9.97e-03  2.02e-04     1.3
    8    -766.9809131687671879     1.57e-06  1.67e-04  2.76e-03  4.29e-04     1.3
    9    -766.9809181373879028    -4.97e-06  5.90e-05  7.46e-04  4.53e-05     1.2
   10    -766.9809181240924545     1.33e-08  1.52e-05  2.26e-04  3.31e-05     1.1
   11    -766.9809182005188859    -7.64e-08  1.14e-05  9.02e-05  9.10e-06     1.1
   12    -766.9809182023071799    -1.79e-09  6.51e-06  7.40e-05  8.45e-06     0.8
                 **** Energy Check signals convergence ****

               *****************************************************
               *                     SUCCESS                       *
               *           SCF CONVERGED AFTER  12 CYCLES          *
               *****************************************************

Recomputing exchange energy using gridx3       ... done (    0.587 sec)
Old exchange energy                            :    -13.737182715 Eh
New exchange energy                            :    -13.737183559 Eh
Exchange energy change after final integration :     -0.000000844 Eh
Total energy after final integration           :   -766.980919047 Eh
             **** ENERGY FILE WAS UPDATED (B3LYP(water)_excited.en.tmp) ****

----------------
TOTAL SCF ENERGY
----------------

Total Energy       :       -766.98091904677017 Eh          -20870.61185 eV

Components:
Nuclear Repulsion  :        406.00733758481090 Eh           11048.02133 eV
Electronic Energy  :      -1172.98058628031640 Eh          -31918.42445 eV
One Electron Energy:      -1856.71105362565891 Eh          -50523.67634 eV
Two Electron Energy:        683.73046734534262 Eh           18605.25189 eV
CPCM Dielectric    :         -0.00766950699832 Eh              -0.20870 eV

Virial components:
Potential Energy   :      -1532.00013400683338 Eh          -41687.84302 eV
Kinetic Energy     :        765.01921496006332 Eh           20817.23117 eV
Virial Ratio       :          2.00256425465968

DFT components:
N(Alpha)           :       33.000003840048 electrons
N(Beta)            :       33.000003840048 electrons
N(Total)           :       66.000007680096 electrons
E(X)               :      -54.577509090510 Eh       
E(C)               :       -2.796313921232 Eh       
E(XC)              :      -57.373823011742 Eh       

CPCM Solvation Model Properties:
Surface-charge          :         -0.02205894587551
Corrected charge        :          0.00000000000000
Outlying charge corr.   :          0.00003709408148 Eh               0.00101 eV
Free-energy (cav+disp)  :  This term is not implemented in the current solvation scheme

---------------
SCF CONVERGENCE
---------------

  Last Energy change         ...    1.7883e-09  Tolerance :   1.0000e-08
  Last MAX-Density change    ...    7.4022e-05  Tolerance :   1.0000e-07
  Last RMS-Density change    ...    6.5077e-06  Tolerance :   5.0000e-09
  Last DIIS Error            ...    1.4463e-03  Tolerance :   5.0000e-07
  Last Orbital Gradient      ...    8.4526e-06  Tolerance :   1.0000e-05
  Last Orbital Rotation      ...    8.9384e-06  Tolerance :   1.0000e-05


----------------
ORBITAL ENERGIES
----------------

  NO   OCC          E(Eh)            E(eV) 
   0   2.0000    -101.537052     -2762.9637 
   1   2.0000     -19.164343      -521.4883 
   2   2.0000     -10.249686      -278.9081 
   3   2.0000     -10.235815      -278.5307 
   4   2.0000     -10.186832      -277.1978 
   5   2.0000     -10.180434      -277.0237 
   6   2.0000     -10.178414      -276.9687 
   7   2.0000     -10.175472      -276.8887 
   8   2.0000      -9.469030      -257.6654 
   9   2.0000      -7.230330      -196.7473 
  10   2.0000      -7.222084      -196.5229 
  11   2.0000      -7.222070      -196.5225 
  12   2.0000      -1.073476       -29.2108 
  13   2.0000      -0.892393       -24.2833 
  14   2.0000      -0.843164       -22.9437 
  15   2.0000      -0.755441       -20.5566 
  16   2.0000      -0.735976       -20.0269 
  17   2.0000      -0.625979       -17.0337 
  18   2.0000      -0.618213       -16.8224 
  19   2.0000      -0.553548       -15.0628 
  20   2.0000      -0.508658       -13.8413 
  21   2.0000      -0.479790       -13.0557 
  22   2.0000      -0.449708       -12.2372 
  23   2.0000      -0.434843       -11.8327 
  24   2.0000      -0.434141       -11.8136 
  25   2.0000      -0.404013       -10.9937 
  26   2.0000      -0.379348       -10.3226 
  27   2.0000      -0.367157        -9.9908 
  28   2.0000      -0.355442        -9.6721 
  29   2.0000      -0.340579        -9.2676 
  30   2.0000      -0.328870        -8.9490 
  31   2.0000      -0.259271        -7.0551 
  32   2.0000      -0.236210        -6.4276 
  33   0.0000      -0.023745        -0.6461 
  34   0.0000      -0.007620        -0.2073 
  35   0.0000       0.017310         0.4710 
  36   0.0000       0.055567         1.5121 
  37   0.0000       0.073530         2.0008 
  38   0.0000       0.090025         2.4497 
  39   0.0000       0.115329         3.1383 
  40   0.0000       0.120457         3.2778 
  41   0.0000       0.126728         3.4485 
  42   0.0000       0.136363         3.7106 
  43   0.0000       0.174723         4.7545 
*Only the first 10 virtual orbitals were printed.

                    ********************************
                    * MULLIKEN POPULATION ANALYSIS *
                    ********************************

-----------------------
MULLIKEN ATOMIC CHARGES
-----------------------
   0 C :   -0.160602
   1 C :   -0.184154
   2 C :    0.111272
   3 C :    0.199948
   4 C :   -0.218355
   5 C :   -0.127124
   6 H :    0.145812
   7 H :    0.154797
   8 H :    0.142371
   9 H :    0.147019
  10 O :   -0.416385
  11 H :    0.345352
  12 Cl:   -0.139950
Sum of atomic charges:   -0.0000000

--------------------------------
MULLIKEN REDUCED ORBITAL CHARGES
--------------------------------
  0 C s       :     3.222551  s :     3.222551
      pz      :     0.886645  p :     2.850433
      px      :     0.994729
      py      :     0.969058
      dz2     :     0.025308  d :     0.080350
      dxz     :     0.021309
      dyz     :     0.018696
      dx2y2   :     0.009319
      dxy     :     0.005717
      f0      :     0.001694  f :     0.007269
      f+1     :     0.001195
      f-1     :     0.001179
      f+2     :     0.000904
      f-2     :     0.001120
      f+3     :     0.000476
      f-3     :     0.000701

  1 C s       :     3.248794  s :     3.248794
      pz      :     0.970538  p :     2.841797
      px      :     0.963737
      py      :     0.907523
      dz2     :     0.020304  d :     0.085992
      dxz     :     0.008764
      dyz     :     0.022304
      dx2y2   :     0.012069
      dxy     :     0.022552
      f0      :     0.001440  f :     0.007571
      f+1     :     0.000841
      f-1     :     0.001198
      f+2     :     0.001264
      f-2     :     0.000533
      f+3     :     0.001653
      f-3     :     0.000642

  2 C s       :     3.150432  s :     3.150432
      pz      :     0.746558  p :     2.589142
      px      :     1.072538
      py      :     0.770046
      dz2     :     0.031515  d :     0.138909
      dxz     :     0.023887
      dyz     :     0.043097
      dx2y2   :     0.015408
      dxy     :     0.025002
      f0      :     0.002183  f :     0.010246
      f+1     :     0.001251
      f-1     :     0.001659
      f+2     :     0.001905
      f-2     :     0.000940
      f+3     :     0.001679
      f-3     :     0.000630

  3 C s       :     3.056665  s :     3.056665
      pz      :     0.917385  p :     2.551435
      px      :     0.928999
      py      :     0.705050
      dz2     :     0.032917  d :     0.176074
      dxz     :     0.024407
      dyz     :     0.058606
      dx2y2   :     0.014529
      dxy     :     0.045615
      f0      :     0.003433  f :     0.015878
      f+1     :     0.001718
      f-1     :     0.001865
      f+2     :     0.002627
      f-2     :     0.001245
      f+3     :     0.003127
      f-3     :     0.001862

  4 C s       :     3.281075  s :     3.281075
      pz      :     0.932398  p :     2.857644
      px      :     1.015981
      py      :     0.909265
      dz2     :     0.012291  d :     0.072184
      dxz     :     0.009686
      dyz     :     0.025662
      dx2y2   :     0.007089
      dxy     :     0.017456
      f0      :     0.001297  f :     0.007452
      f+1     :     0.000765
      f-1     :     0.001277
      f+2     :     0.001368
      f-2     :     0.000535
      f+3     :     0.001575
      f-3     :     0.000635

  5 C s       :     3.217138  s :     3.217138
      pz      :     0.959509  p :     2.820481
      px      :     0.953187
      py      :     0.907785
      dz2     :     0.015363  d :     0.082178
      dxz     :     0.010083
      dyz     :     0.028077
      dx2y2   :     0.009191
      dxy     :     0.019465
      f0      :     0.001430  f :     0.007327
      f+1     :     0.000929
      f-1     :     0.001214
      f+2     :     0.001269
      f-2     :     0.000384
      f+3     :     0.001550
      f-3     :     0.000550

  6 H s       :     0.831757  s :     0.831757
      pz      :     0.003471  p :     0.022431
      px      :     0.004988
      py      :     0.013972

  7 H s       :     0.822834  s :     0.822834
      pz      :     0.012006  p :     0.022369
      px      :     0.004613
      py      :     0.005750

  8 H s       :     0.835251  s :     0.835251
      pz      :     0.011638  p :     0.022378
      px      :     0.004926
      py      :     0.005814

  9 H s       :     0.830787  s :     0.830787
      pz      :     0.011162  p :     0.022195
      px      :     0.004647
      py      :     0.006386

 10 O s       :     3.760719  s :     3.760719
      pz      :     1.493375  p :     4.623375
      px      :     1.814113
      py      :     1.315887
      dz2     :     0.008822  d :     0.030582
      dxz     :     0.001525
      dyz     :     0.008337
      dx2y2   :     0.006352
      dxy     :     0.005546
      f0      :     0.000207  f :     0.001709
      f+1     :     0.000024
      f-1     :     0.000406
      f+2     :     0.000283
      f-2     :     0.000023
      f+3     :     0.000344
      f-3     :     0.000422

 11 H s       :     0.607575  s :     0.607575
      pz      :     0.020250  p :     0.047073
      px      :     0.014763
      py      :     0.012060

 12 Cls       :     5.892391  s :     5.892391
      pz      :     3.483617  p :    11.178343
      px      :     3.931510
      py      :     3.763216
      dz2     :     0.016636  d :     0.063785
      dxz     :     0.014517
      dyz     :     0.021658
      dx2y2   :     0.004255
      dxy     :     0.006718
      f0      :     0.000926  f :     0.005431
      f+1     :     0.000609
      f-1     :     0.002043
      f+2     :     0.000875
      f-2     :     0.000724
      f+3     :     0.000136
      f-3     :     0.000117



                     *******************************
                     * LOEWDIN POPULATION ANALYSIS *
                     *******************************

----------------------
LOEWDIN ATOMIC CHARGES
----------------------
   0 C :   -0.154171
   1 C :   -0.144831
   2 C :   -0.409956
   3 C :   -0.287803
   4 C :   -0.121167
   5 C :   -0.138456
   6 H :    0.151236
   7 H :    0.155390
   8 H :    0.155890
   9 H :    0.152758
  10 O :    0.080465
  11 H :    0.189623
  12 Cl:    0.371023

-------------------------------
LOEWDIN REDUCED ORBITAL CHARGES
-------------------------------
  0 C s       :     2.764986  s :     2.764986
      pz      :     1.061315  p :     2.963508
      px      :     0.909911
      py      :     0.992281
      dz2     :     0.138514  d :     0.382322
      dxz     :     0.076197
      dyz     :     0.103571
      dx2y2   :     0.050476
      dxy     :     0.013565
      f0      :     0.012133  f :     0.043356
      f+1     :     0.003696
      f-1     :     0.008860
      f+2     :     0.007779
      f-2     :     0.007568
      f+3     :     0.000641
      f-3     :     0.002679

  1 C s       :     2.767558  s :     2.767558
      pz      :     1.021937  p :     2.944212
      px      :     0.885157
      py      :     1.037118
      dz2     :     0.098887  d :     0.389041
      dxz     :     0.026891
      dyz     :     0.129036
      dx2y2   :     0.057937
      dxy     :     0.076289
      f0      :     0.009599  f :     0.044019
      f+1     :     0.004040
      f-1     :     0.007665
      f+2     :     0.007803
      f-2     :     0.003558
      f+3     :     0.006040
      f-3     :     0.005315

  2 C s       :     2.778680  s :     2.778680
      pz      :     0.957597  p :     2.983108
      px      :     0.976113
      py      :     1.049398
      dz2     :     0.148160  d :     0.586960
      dxz     :     0.080941
      dyz     :     0.208487
      dx2y2   :     0.067134
      dxy     :     0.082238
      f0      :     0.014836  f :     0.061207
      f+1     :     0.006144
      f-1     :     0.011138
      f+2     :     0.011932
      f-2     :     0.006714
      f+3     :     0.005328
      f-3     :     0.005115

  3 C s       :     2.718222  s :     2.718222
      pz      :     1.077182  p :     2.785588
      px      :     0.862546
      py      :     0.845860
      dz2     :     0.150000  d :     0.686760
      dxz     :     0.080640
      dyz     :     0.202208
      dx2y2   :     0.109363
      dxy     :     0.144549
      f0      :     0.021060  f :     0.097234
      f+1     :     0.008220
      f-1     :     0.013452
      f+2     :     0.017502
      f-2     :     0.008266
      f+3     :     0.016277
      f-3     :     0.012457

  4 C s       :     2.762523  s :     2.762523
      pz      :     0.988267  p :     2.951700
      px      :     0.918234
      py      :     1.045199
      dz2     :     0.081731  d :     0.364330
      dxz     :     0.026119
      dyz     :     0.145197
      dx2y2   :     0.051084
      dxy     :     0.060200
      f0      :     0.009030  f :     0.042613
      f+1     :     0.003556
      f-1     :     0.008029
      f+2     :     0.008457
      f-2     :     0.003502
      f+3     :     0.005113
      f-3     :     0.004926

  5 C s       :     2.766137  s :     2.766137
      pz      :     1.016419  p :     2.938149
      px      :     0.875909
      py      :     1.045821
      dz2     :     0.089304  d :     0.390545
      dxz     :     0.032238
      dyz     :     0.150803
      dx2y2   :     0.051606
      dxy     :     0.066593
      f0      :     0.010506  f :     0.043625
      f+1     :     0.004560
      f-1     :     0.007576
      f+2     :     0.008169
      f-2     :     0.002634
      f+3     :     0.005342
      f-3     :     0.004839

  6 H s       :     0.788978  s :     0.788978
      pz      :     0.010562  p :     0.059786
      px      :     0.014052
      py      :     0.035172

  7 H s       :     0.784594  s :     0.784594
      pz      :     0.030988  p :     0.060016
      px      :     0.013310
      py      :     0.015718

  8 H s       :     0.783942  s :     0.783942
      pz      :     0.029927  p :     0.060168
      px      :     0.014092
      py      :     0.016149

  9 H s       :     0.788148  s :     0.788148
      pz      :     0.028688  p :     0.059094
      px      :     0.013073
      py      :     0.017332

 10 O s       :     3.319660  s :     3.319660
      pz      :     1.468404  p :     4.524069
      px      :     1.699531
      py      :     1.356134
      dz2     :     0.015668  d :     0.070926
      dxz     :     0.000699
      dyz     :     0.024515
      dx2y2   :     0.015435
      dxy     :     0.014610
      f0      :     0.000995  f :     0.004880
      f+1     :     0.000058
      f-1     :     0.001153
      f+2     :     0.000664
      f-2     :     0.000031
      f+3     :     0.000990
      f-3     :     0.000989

 11 H s       :     0.655593  s :     0.655593
      pz      :     0.082703  p :     0.154784
      px      :     0.040706
      py      :     0.031376

 12 Cls       :     5.556059  s :     5.556059
      pz      :     3.427851  p :    10.959181
      px      :     3.857307
      py      :     3.674023
      dz2     :     0.027420  d :     0.102408
      dxz     :     0.022978
      dyz     :     0.033732
      dx2y2   :     0.007570
      dxy     :     0.010709
      f0      :     0.002266  f :     0.011328
      f+1     :     0.001329
      f-1     :     0.003711
      f+2     :     0.001776
      f-2     :     0.001748
      f+3     :     0.000273
      f-3     :     0.000225



                      *****************************
                      * MAYER POPULATION ANALYSIS *
                      *****************************

  NA   - Mulliken gross atomic population
  ZA   - Total nuclear charge
  QA   - Mulliken gross atomic charge
  VA   - Mayer's total valence
  BVA  - Mayer's bonded valence
  FA   - Mayer's free valence

  ATOM       NA         ZA         QA         VA         BVA        FA
  0 C      6.1606     6.0000    -0.1606     3.8754     3.8754     0.0000
  1 C      6.1842     6.0000    -0.1842     3.8934     3.8934     0.0000
  2 C      5.8887     6.0000     0.1113     3.5920     3.5920     0.0000
  3 C      5.8001     6.0000     0.1999     4.0122     4.0122    -0.0000
  4 C      6.2184     6.0000    -0.2184     3.8939     3.8939    -0.0000
  5 C      6.1271     6.0000    -0.1271     3.8820     3.8820    -0.0000
  6 H      0.8542     1.0000     0.1458     0.9637     0.9637     0.0000
  7 H      0.8452     1.0000     0.1548     0.9709     0.9709     0.0000
  8 H      0.8576     1.0000     0.1424     0.9792     0.9792    -0.0000
  9 H      0.8530     1.0000     0.1470     0.9618     0.9618    -0.0000
 10 O      8.4164     8.0000    -0.4164     2.0751     2.0751     0.0000
 11 H      0.6546     1.0000     0.3454     0.9095     0.9095     0.0000
 12 Cl    17.1399    17.0000    -0.1399     1.2026     1.2026    -0.0000

  Mayer bond orders larger than 0.100000
B(  0-C ,  1-C ) :   1.4000 B(  0-C ,  5-C ) :   1.3823 B(  0-C ,  6-H ) :   0.9714 
B(  1-C ,  2-C ) :   1.3184 B(  1-C ,  7-H ) :   0.9621 B(  2-C ,  3-C ) :   1.2667 
B(  2-C , 12-Cl) :   0.9356 B(  3-C ,  4-C ) :   1.3562 B(  3-C , 10-O ) :   1.1872 
B(  4-C ,  5-C ) :   1.4224 B(  4-C ,  8-H ) :   0.9729 B(  5-C ,  9-H ) :   0.9723 
B( 10-O , 11-H ) :   0.8403 

-------
TIMINGS
-------

Total SCF time: 0 days 0 hours 0 min 11 sec 

Total time                  ....      11.995 sec
Sum of individual times     ....      11.298 sec  ( 94.2%)

SCF preparation             ....       0.223 sec  (  1.9%)
Fock matrix formation       ....       8.160 sec  ( 68.0%)
  Startup                   ....       0.109 sec  (  1.3% of F)
  Split-RI-J                ....       0.744 sec  (  9.1% of F)
  Chain of spheres X        ....       4.167 sec  ( 51.1% of F)
  XC integration            ....       1.755 sec  ( 21.5% of F)
    Basis function eval.    ....       0.227 sec  ( 12.9% of XC)
    Density eval.           ....       0.180 sec  ( 10.3% of XC)
    XC-Functional eval.     ....       0.005 sec  (  0.3% of XC)
    XC-Potential eval.      ....       0.256 sec  ( 14.6% of XC)
  CPCM terms                ....       0.861 sec  ( 10.6% of F)
Diagonalization             ....       0.000 sec  (  0.0%)
Density matrix formation    ....       0.556 sec  (  4.6%)
Total Energy calculation    ....       0.498 sec  (  4.2%)
Population analysis         ....       0.074 sec  (  0.6%)
Orbital Transformation      ....       0.065 sec  (  0.5%)
Orbital Orthonormalization  ....       0.000 sec  (  0.0%)
DIIS solution               ....       0.567 sec  (  4.7%)
SOSCF solution              ....       1.149 sec  (  9.6%)
Finished LeanSCF after  12.1 sec

Maximum memory used throughout the entire LEANSCF-calculation: 22.3 MB


           ************************************************************
           *        Program running with 20 parallel MPI-processes    *
           *              working on a common directory               *
           ************************************************************

------------------------------------------------------------------------------
                         ORCA PROPERTY INTEGRAL CALCULATIONS
------------------------------------------------------------------------------

GBWName                                   ... B3LYP(water)_excited.gbw
Number of atoms                           ...     13
Number of basis functions                 ...    284
Max core memory                           ...   4096 MB

Dipole integrals                          ... YES
Quadrupole integrals                      ...  NO
Linear momentum integrals                 ... YES
Angular momentum integrals                ... YES
Higher moments length integrals           ...  NO
Higher moments velocity integrals         ...  NO
Kinetic energy integrals                  ...  NO
GIAO right hand sides                     ...  NO
GIAO dipole derivative integrals          ...  NO
SOC integrals                             ...  NO
EPR diamagnetic integrals (GIAO)          ...  NO
EPR gauge integrals                       ...  NO
Field gradient integrals                  ...  NO (   0 nuclei)
Spin-dipole/Fermi contact integrals       ...  NO (   0 nuclei)
Contact density integrals                 ...  NO (   0 nuclei)
Nucleus-orbit integrals                   ...  NO (   0 nuclei)
Geometric perturbations                   ...  NO (  13 nuclei)

Choice of electric origin   ... Center of mass
Position of electric origin ... (  0.1764,  0.6302,  1.2267) 
Choice of magnetic origin   ... GIAO
Position of magnetic origin ... (  0.0000,  0.0000,  0.0000) 

Calculating integrals                     ... Electric Dipole (Length)     done (  0.0 sec)
Calculating integrals                     ... Linear Momentum              done (  0.0 sec)
Calculating integrals                     ... Angular Momentum  (ElOri)    done (  0.0 sec)

Property integrals calculated in   0.1 sec

Maximum memory used throughout the entire PROPINT-calculation: 14.6 MB


           ************************************************************
           *        Program running with 20 parallel MPI-processes    *
           *              working on a common directory               *
           ************************************************************
------------------------------------------------------------------------------
                        ORCA TD-DFT/TDA CALCULATION
------------------------------------------------------------------------------

Input orbitals are from        ... B3LYP(water)_excited.gbw
CI-vector output               ... B3LYP(water)_excited.cis
Solver                         ... FN-2001
Tamm-Dancoff approximation     ... operative
CIS-Integral strategy          ... AO-integrals
Integral handling              ... AO integral Direct
Max. core memory used          ... 4096 MB
Reference state                ... RHF
Generation of triplets         ... off
Follow IRoot                   ... off
Number of operators            ... 1
Orbital ranges used for CIS calculation:
 Operator 0:  Orbitals  12... 32  to  33...283
XAS localization array:
 Operator 0:  Orbitals  -1... -1

-------------------
XC-INTEGRATION GRID
-------------------

General Integration Accuracy     IntAcc      ... 3.467
Radial Grid Type                 RadialGrid  ... OptM3 with GC (2021)
Angular Grid (max. ang.)         AngularGrid ... 1 (Lebedev-50)
Angular grid pruning method      GridPruning ... 4 (adaptive)
Weight generation scheme         WeightScheme... mBecke (2022)
Basis function cutoff            BFCut       ... 1.0000e-11
Integration weight cutoff        WCut        ... 1.0000e-14
Partially contracted basis set               ... off
Rotationally invariant grid construction     ... off
Angular grids for H and He will be reduced by one unit

Total number of grid points                  ...    10545
Total number of batches                      ...      170
Average number of points per batch           ...       62
Average number of grid points per atom       ...      811

---------------------
COSX-INTEGRATION GRID
---------------------

General Integration Accuracy     IntAcc      ... 3.067
Radial Grid Type                 RadialGrid  ... OptM3 with GC (2021)
Angular Grid (max. ang.)         AngularGrid ... 1 (Lebedev-50)
Angular grid pruning method      GridPruning ... 4 (adaptive)
Weight generation scheme         WeightScheme... mBecke (2022)
Basis function cutoff            BFCut       ... 1.0000e-11
Integration weight cutoff        WCut        ... 1.0000e-14
Partially contracted basis set               ... on
Rotationally invariant grid construction     ... off
Angular grids for H and He will be reduced by one unit

Total number of grid points                  ...     5215
Total number of batches                      ...       48
Average number of points per batch           ...      108
Average number of grid points per atom       ...      401

---------------
TD-DFT XC SETUP
---------------

DFT calculation                         ... on
Name of the grid file                   ... B3LYP(water)_excited.grid_cis.tmp
RI-approximation                        ... on
Aux-basis dimension                     ... 0
Exchange functional (TD-DFT)            ... B88
   X-Alpha parameter    XAlpha (TD-DFT) ...  0.666667
   Becke's b parameter  XBeta (TD-DFT)  ...  0.004200
Correlation functional (TD-DFT)         ... LYP
 LDA part of GGA corr.  LDAOpt (TD-DFT) ... VWN-5
Hybrid DFT                              ... on
   Exchange mixing (TD-DFT)             ...  0.200
   GGA exch. scaling (TD-DFT)           ...  0.720
   GGA corr. scaling (TD-DFT)           ...  0.810

Building densities             ... done
Calculating rho(r) on the grid ... done
Building xc-kernel on the grid ... done
                    *** TD-DFT CALCULATION INITIALIZED ***

---------------------------------
    LR-CPCM (non-equilibrium)
---------------------------------

Setting up LR-CPCM             ... done

------------------------
DAVIDSON-DIAGONALIZATION
------------------------

Dimension of the eigenvalue problem            ...   5271
Number of roots to be determined               ...      5
Maximum size of the expansion space            ...     50
Maximum number of iterations                   ...    100
Convergence tolerance for the residual         ...    2.500e-07
Convergence tolerance for the energies         ...    2.500e-07
Orthogonality tolerance                        ...    1.000e-14
Level Shift                                    ...    0.000e+00
Constructing the preconditioner                ... o.k.
Building the initial guess                     ... o.k.
Number of trial vectors determined             ...     50


                       ****Iteration    0****
   Time for iteration     :  TOTAL=1.3 TRAFO=0.2 RIJ=0.2 COSX=0.4 XC=0.2
   Size of expansion space: 15
   Lowest Energy          :     0.189998627061
   Maximum Energy change  :     0.255765394319 (vector 4)
   Maximum residual norm  :     0.031051014133

                       ****Iteration    1****
   Time for iteration     :  TOTAL=0.8 TRAFO=0.1 RIJ=0.1 COSX=0.2 XC=0.1
   Size of expansion space: 20
   Lowest Energy          :     0.185754127362
   Maximum Energy change  :     0.019508040520 (vector 2)
   Maximum residual norm  :     0.000435959805

                       ****Iteration    2****
   Time for iteration     :  TOTAL=0.9 TRAFO=0.1 RIJ=0.1 COSX=0.2 XC=0.1
   Size of expansion space: 25
   Lowest Energy          :     0.185378067087
   Maximum Energy change  :     0.000407095093 (vector 2)
   Maximum residual norm  :     0.000039863803

                       ****Iteration    3****
   Time for iteration     :  TOTAL=1.3 TRAFO=0.1 RIJ=0.1 COSX=0.2 XC=0.1
   Size of expansion space: 30
   Lowest Energy          :     0.185356035129
   Maximum Energy change  :     0.000045310824 (vector 2)
   Maximum residual norm  :     0.000004552700

                       ****Iteration    4****
   Time for iteration     :  TOTAL=0.9 TRAFO=0.1 RIJ=0.1 COSX=0.2 XC=0.1
   Size of expansion space: 35
   Lowest Energy          :     0.185354410229
   Maximum Energy change  :     0.004120431952 (vector 4)
   Maximum residual norm  :     0.000398011348

                       ****Iteration    5****
   Time for iteration     :  TOTAL=2.0 TRAFO=0.1 RIJ=0.3 COSX=0.5 XC=0.6
   Size of expansion space: 40
   Lowest Energy          :     0.185354371004
   Maximum Energy change  :     0.000567953661 (vector 4)
   Maximum residual norm  :     0.000070633897

                       ****Iteration    6****
   Time for iteration     :  TOTAL=0.9 TRAFO=0.1 RIJ=0.1 COSX=0.2 XC=0.1
   Size of expansion space: 45
   Lowest Energy          :     0.185354369831
   Maximum Energy change  :     0.000252838125 (vector 4)
   Maximum residual norm  :     0.000093684240

                       ****Iteration    7****
   Time for iteration     :  TOTAL=0.9 TRAFO=0.1 RIJ=0.1 COSX=0.2 XC=0.1
   Size of expansion space: 50
   Lowest Energy          :     0.185354369778
   Maximum Energy change  :     0.000505340093 (vector 4)
   Maximum residual norm  :     0.000051017382
   Rebuilding the expansion space

                       ****Iteration    8****
   Time for iteration     :  TOTAL=1.3 TRAFO=0.2 RIJ=0.1 COSX=0.4 XC=0.2
   Size of expansion space: 10
   Lowest Energy          :     0.185354702776
   Maximum Energy change  :     0.000067136853 (vector 4)
   Maximum residual norm  :     0.000004359770

                       ****Iteration    9****
   Time for iteration     :  TOTAL=1.2 TRAFO=0.1 RIJ=0.2 COSX=0.6 XC=0.1
   Size of expansion space: 15
   Lowest Energy          :     0.185354702776
   Maximum Energy change  :     0.000006819097 (vector 4)
   Maximum residual norm  :     0.000001299638

                       ****Iteration   10****
   Time for iteration     :  TOTAL=0.8 TRAFO=0.1 RIJ=0.1 COSX=0.2 XC=0.1
   Size of expansion space: 20
   Lowest Energy          :     0.185354702776
   Maximum Energy change  :     0.000002056815 (vector 4)
   Maximum residual norm  :     0.000000398076

                       ****Iteration   11****
   Time for iteration     :  TOTAL=1.1 TRAFO=0.1 RIJ=0.1 COSX=0.3 XC=0.2
   Size of expansion space: 24
   Lowest Energy          :     0.185354702776
   Maximum Energy change  :     0.000001109728 (vector 4)
   Maximum residual norm  :     0.000000369855

                       ****Iteration   12****
   Time for iteration     :  TOTAL=1.2 TRAFO=0.1 RIJ=0.1 COSX=0.4 XC=0.2
   Size of expansion space: 28
   Lowest Energy          :     0.185354702776
   Maximum Energy change  :     0.000001588255 (vector 4)
   Maximum residual norm  :     0.000000471400

                       ****Iteration   13****
   Time for iteration     :  TOTAL=1.3 TRAFO=0.1 RIJ=0.2 COSX=0.5 XC=0.1
   Size of expansion space: 32
   Lowest Energy          :     0.185354702776
   Maximum Energy change  :     0.000001496417 (vector 4)
   Maximum residual norm  :     0.000000180350

      *** CONVERGENCE OF RESIDUAL NORM REACHED ***

Storing the converged CI vectors               ... B3LYP(water)_excited.cis1

                 *** DAVIDSON DONE ***

Total time for solving the CIS problem:    21.451sec

------------------------------------
TD-DFT/TDA EXCITED STATES (SINGLETS)
------------------------------------

the weight of the individual excitations are printed if larger than 1.0e-02

STATE  1:  E=   0.185355 au      5.044 eV    40680.7 cm**-1 <S**2> =   0.000000 Mult 1
    31a ->  34a  :     0.242440 (c= -0.49238214)
    32a ->  33a  :     0.742413 (c=  0.86163363)

STATE  2:  E=   0.212582 au      5.785 eV    46656.3 cm**-1 <S**2> =   0.000000 Mult 1
    31a ->  35a  :     0.014253 (c= -0.11938449)
    32a ->  35a  :     0.976906 (c=  0.98838565)

STATE  3:  E=   0.217860 au      5.928 eV    47814.7 cm**-1 <S**2> =   0.000000 Mult 1
    31a ->  33a  :     0.398439 (c= -0.63122006)
    32a ->  34a  :     0.562490 (c= -0.74999361)

STATE  4:  E=   0.235612 au      6.411 eV    51710.8 cm**-1 <S**2> =   0.000000 Mult 1
    31a ->  35a  :     0.970612 (c=  0.98519632)
    32a ->  35a  :     0.016017 (c=  0.12655796)

STATE  5:  E=   0.248696 au      6.767 eV    54582.5 cm**-1 <S**2> =   0.000000 Mult 1
    27a ->  33a  :     0.024460 (c= -0.15639666)
    29a ->  34a  :     0.021321 (c= -0.14601693)
    31a ->  33a  :     0.406561 (c=  0.63762174)
    31a ->  34a  :     0.196095 (c=  0.44282619)
    32a ->  33a  :     0.058522 (c=  0.24191282)
    32a ->  34a  :     0.231554 (c= -0.48120104)

Storing amplitudes in GBW file ... 
... GBW file created

-----------------------------
TD-DFT/TDA-EXCITATION SPECTRA
-----------------------------

Center of mass = (  0.1764,  0.6302,  1.2267)
Generating CIS transition densities           ... done

----------------------------------------------------------------------------------------------------
                     ABSORPTION SPECTRUM VIA TRANSITION ELECTRIC DIPOLE MOMENTS    
----------------------------------------------------------------------------------------------------
     Transition      Energy     Energy  Wavelength fosc(D2)      D2        DX        DY        DZ   
                      (eV)      (cm-1)    (nm)                 (au**2)    (au)      (au)      (au)  
----------------------------------------------------------------------------------------------------
  0-1A  ->  1-1A    5.043758   40680.7   245.8   0.059665790   0.48285   0.02463   0.20134   0.66461
  0-1A  ->  2-1A    5.784644   46656.3   214.3   0.000751977   0.00531  -0.07271   0.00432   0.00042
  0-1A  ->  3-1A    5.928270   47814.7   209.1   0.025263014   0.17394   0.00078  -0.15670   0.38650
  0-1A  ->  4-1A    6.411316   51710.8   193.4   0.000001423   0.00001  -0.00026   0.00291   0.00070
  0-1A  ->  5-1A    6.767369   54582.5   183.2   0.625764160   3.77427  -0.03479  -1.33819   1.40795

----------------------------------------------------------------------------------------------------
                     ABSORPTION SPECTRUM VIA TRANSITION VELOCITY DIPOLE MOMENTS    
----------------------------------------------------------------------------------------------------
     Transition      Energy     Energy  Wavelength fosc(P2)      P2        PX        PY        PZ   
                      (eV)      (cm-1)    (nm)                 (au**2)    (au)      (au)      (au)  
----------------------------------------------------------------------------------------------------
  0-1A  ->  1-1A    5.043758   40680.7   245.8   0.003880352   0.00108  -0.00143  -0.01643  -0.02840
  0-1A  ->  2-1A    5.784644   46656.3   214.3   0.005906518   0.00188  -0.04333   0.00213   0.00103
  0-1A  ->  3-1A    5.928270   47814.7   209.1   0.004118743   0.00135  -0.00081   0.00232  -0.03661
  0-1A  ->  4-1A    6.411316   51710.8   193.4   0.002505651   0.00089   0.02970  -0.00170  -0.00073
  0-1A  ->  5-1A    6.767369   54582.5   183.2   0.064577917   0.02409   0.00267   0.10991  -0.10956

------------------------------------------------------------------------------------------
                     CD SPECTRUM VIA TRANSITION ELECTRIC DIPOLE MOMENTS    
------------------------------------------------------------------------------------------
     Transition      Energy     Energy  Wavelength    R        MX        MY        MZ   
                      (eV)      (cm-1)    (nm)   (1e40*cgs)   (au)      (au)      (au)  
------------------------------------------------------------------------------------------
  0-1A  ->  1-1A    5.043758   40680.7   245.8    0.08809   0.15654  -0.00780  -0.00372
  0-1A  ->  2-1A    5.784644   46656.3   214.3    0.07161  -0.00022  -0.05002   0.11495
  0-1A  ->  3-1A    5.928270   47814.7   209.1   -0.05197   0.08700  -0.00457  -0.00174
  0-1A  ->  4-1A    6.411316   51710.8   193.4   -0.10175   0.00381   0.06235   0.05009
  0-1A  ->  5-1A    6.767369   54582.5   183.2    0.38519   0.58564  -0.02883  -0.01351

------------------------------------------------------------------------------------------
                     CD SPECTRUM VIA TRANSITION VELOCITY DIPOLE MOMENTS    
------------------------------------------------------------------------------------------
     Transition      Energy     Energy  Wavelength    R        MX        MY        MZ   
                      (eV)      (cm-1)    (nm)   (1e40*cgs)   (au)      (au)      (au)  
------------------------------------------------------------------------------------------
  0-1A  ->  1-1A    5.043758   40680.7   245.8    0.02555   0.15654  -0.00780  -0.00372
  0-1A  ->  2-1A    5.784644   46656.3   214.3    0.04823  -0.00022  -0.05002   0.11495
  0-1A  ->  3-1A    5.928270   47814.7   209.1   -0.03715   0.08700  -0.00457  -0.00174
  0-1A  ->  4-1A    6.411316   51710.8   193.4   -0.05953   0.00381   0.06235   0.05009
  0-1A  ->  5-1A    6.767369   54582.5   183.2   -0.23599   0.58564  -0.02883  -0.01351

Total run time:       21.867 sec

           *** ORCA-CIS/TD-DFT FINISHED WITHOUT ERROR ***
-----------------------
CIS/TD-DFT TOTAL ENERGY
-----------------------

    E(SCF)  =   -766.980919047 Eh
    DE(CIS) =      0.185354703 Eh (Root  1)
    ----------------------------- ---------
    E(tot)  =   -766.795564344 Eh


Maximum memory used throughout the entire CIS-calculation: 64.4 MB
=> NOW LEAVING ORCA_CIS

-------------------------   --------------------
FINAL SINGLE POINT ENERGY      -766.795564343994
-------------------------   --------------------



           ************************************************************
           *        Program running with 20 parallel MPI-processes    *
           *              working on a common directory               *
           ************************************************************

------------------------------------------------------------------------------
                              ORCA PROPERTY CALCULATIONS
------------------------------------------------------------------------------

GBWName                                 ... B3LYP(water)_excited.gbw
Number of atoms                         ...     13
Number of basis functions               ...    284
Max core memory                         ...   4096 MB

Electric properties:
Dipole moment                           ... YES
Quadrupole moment                       ...  NO
Static polarizability (Dipole/Dipole)   ...  NO
Static polarizability (Dipole/Quad.)    ...  NO
Static polarizability (Quad./Quad.)     ...  NO
Static polarizability (Velocity)        ...  NO
Static hyperpolarizability              ...  NO

Atomic electric properties:
Dipole moment                           ...  NO
Quadrupole moment                       ...  NO
Static polarizability                   ...  NO

Choice of electric origin               ... Center of mass
Position of electric origin             ...     0.176438     0.630240     1.226731

General magnetic properties:
Magnetizability                         ...  NO

EPR properties:
g-Tensor (aka g-matrix)                 ...  NO
Zero-Field splitting spin-orbit         ...  NO
Zero-field splitting spin-spin          ...  NO
Hyperfine couplings                     ...  NO (   0 nuclei)
Quadrupole couplings                    ...  NO (   0 nuclei)
Contact density                         ...  NO (   0 nuclei)

NMR properties:
Chemical shifts                         ...  NO (   0 nuclei)
Spin-rotation constants                 ...  NO (   0 nuclei)
Spin-spin couplings                     ...  NO (   0 nuclei,    0 pairs)

Choice of magnetic origin               ... GIAO
Position of magnetic origin             ...     0.000000     0.000000     0.000000

Properties with geometric perturbations:
SCF Hessian                             ...  NO
IR spectrum                             ...  NO
VCD spectrum                            ...  NO
X-ray spectroscopy properties:
SCF XES/XAS/RIXS spectra                ...  NO

SCF SOC stabilization energy            ...  NO
Diagonal Born-Oppenheimer correction    ...  NO

-------------
DIPOLE MOMENT
-------------

Method             : SCF
Type of density    : Electron Density
Multiplicity       :   1
Irrep              :   0
Energy             :  -766.9809190467701683 Eh
Basis              : AO
                                X                 Y                 Z
Electronic contribution:      0.404559777       5.025909216       7.095044661
Nuclear contribution   :     -0.423921506      -5.450143520      -7.083989479
                        -----------------------------------------
Total Dipole Moment    :     -0.019361729      -0.424234304       0.011055183
                        -----------------------------------------
Magnitude (a.u.)       :      0.424819772
Magnitude (Debye)      :      1.079806046



--------------------
Rotational spectrum 
--------------------
 
Rotational constants in cm-1:             0.099288             0.051110             0.033741 
Rotational constants in MHz :          2976.572638          1532.242839          1011.536699 

Dipole components along the rotational axes: 
x,y,z [a.u.] :    -0.251306    -0.342513    -0.001439 
x,y,z [Debye]:    -0.638770    -0.870598    -0.003656 

 

Dipole moment calculation done in   0.0 sec 

Maximum memory used throughout the entire PROP-calculation: 11.9 MB

--------------------------------
SUGGESTED CITATIONS FOR THIS RUN
--------------------------------

Below you find a list of papers that are relevant to this ORCA run
We neither can nor want to force you to cite these papers, but we appreciate if you do
You receive ORCA, which is the product of decades of hard work by many enthusiastic individuals, for free
The only thing we kindly ask in return is that you cite our papers,
We deeply appreciate it, if you show your appreciation for ORCA by not just citing the generic ORCA reference.

Please note that relegating all ORCA citations to the supporting information does *not* help us.
SI sections are not indexed - citations you put there will not count into any citation statistics
But we need these citations in order to attract the funding resources that allow us to do what we are doing

Therefore, if you are a happy ORCA user, please consider citing a few of the papers listed below in the main body of your paper

In addition to the list printed below, the program has created the file B3LYP(water)_excited.bibtex that contains the list in bibtex format
You can import this file easily into all common literature databanks and citation aid programs


List of essential papers. We consider these as the minimum necessary citations

  1. Neese, F.
     Software update: the ORCA program system, version 6.0
     WIRES Comput. Molec. Sci. 2025 15(1), e70019
     doi.org/10.1002/wcms.7019

List of papers to cite with high priority. The work reported in these papers was absolutely
necessary for this run to complete.
Our perspective: the developers of density functionals and basis sets usually get cited in chemistry papers
Good! But without the algorithms to do something with them, the functionals or basis sets would not do anything.
Hence, in our opinion, the algorithm design and method developments papers are equally worthy of getting cited

  1. Neese, F.; Olbrich, G.
     Efficient use of the resolution of the identity approximation in time-dependent density functional calculations with hybrid density functionals
     Chem. Phys. Lett. 2002 362 , 170-178
     doi.org/10.1016/s0009-2614(02)01053-9
  2. Neese, F.
     An improvement of the resolution of the identity approximation for the formation of the Coulomb matrix
     J. Comp. Chem. 2003 24(14), 1740-1747
     doi.org/10.1002/jcc.10318
  3. Neese, F.; Wennmohs, F.; Hansen, A.; Becker, U.
     Efficient, approximate and parallel Hartree-Fock and hybrid DFT calculations. A 'chain-of-spheres' algorithm for the Hartree-Fock exchange
     Chem. Phys. 2009 356(1-3), 98-109
     doi.org/10.1016/j.chemphys.2008.10.036
  4. Garcia-Rates, M.; Neese, F.
     Effect of the Solute Cavity on the Solvation Energy and its Derivatives within the Framework of the Gaussian Charge Scheme
     J. Comput. Chem. 2020 41 , 922-939
     doi.org/10.1002/jcc.26139
  5. Helmich-Paris, B.; de Souza, B.; Neese, F.; Izsák, R.
     An improved chain of spheres for exchange algorithm
     J. Chem. Phys. 2021 155(10), 104109
     doi.org/10.1063/5.0058766
  6. Neese, F.
     The SHARK Integral Generation and Digestion System
     J. Comp. Chem. 2022 44(3), 381
     doi.org/10.1002/jcc.26942

List of suggested additional citations. These are papers that are important in the 'surrounding' of 
of this run, or papers that preceded the highly important papers. If you like your results we are grateful for a citation.

  1. Izsak, R.; Neese, F.
     An overlap fitted chain of spheres exchange method
     J. Chem. Phys. 2011 135 , 144105
     doi.org/10.1063/1.3646921
  2. Izsak, R.; Hansen, A.; Neese, F.
     The resolution of identity and chain of spheres approximations for the LPNO-CCSD singles Fock term
     Molec. Phys. 2012 110 , 2413-2417
     doi.org/10.1080/00268976.2012.687466
  3. Neese, F.
     The ORCA program system
     WIRES Comput. Molec. Sci. 2012 2(1), 73-78
     doi.org/10.1002/wcms.81
  4. Izsak, R.; Neese, F.; Klopper, W.
     Robust fitting techniques in the chain of spheres approximation to the Fock exchange: The role of the complementary space
     J. Chem. Phys. 2013 139 , 
     doi.org/10.1063/1.4819264
  5. Neese, F.
     Software update: the ORCA program system, version 4.0
     WIRES Comput. Molec. Sci. 2018 8(1), 1-6
     doi.org/10.1002/wcms.1327
  6. Neese, F.; Wennmohs, F.; Becker, U.; Riplinger, C.
     The ORCA quantum chemistry program package
     J. Chem. Phys. 2020 152(22), 224108
     doi.org/10.1063/5.0004608
  7. Neese, F.
     Software update: The ORCA program system—Version 5.0
     WIRES Comput. Molec. Sci. 2022 12(1), e1606
     doi.org/10.1002/wcms.1606

List of optional additional citations

  1. Neese, F.
     Approximate second-order SCF convergence for spin unrestricted wavefunctions
     Chem. Phys. Lett. 2000 325(1-3), 93-98
     doi.org/10.1016/s0009-2614(00)00662-x

Timings for individual modules:

Sum of individual times          ...       35.662 sec (=   0.594 min)
Startup calculation              ...        0.751 sec (=   0.013 min)   2.1 %
SCF iterations                   ...       12.551 sec (=   0.209 min)  35.2 %
Property integrals               ...        0.208 sec (=   0.003 min)   0.6 %
Property calculations            ...        0.149 sec (=   0.002 min)   0.4 %
CIS module                       ...       22.003 sec (=   0.367 min)  61.7 %
                             ****ORCA TERMINATED NORMALLY****
TOTAL RUN TIME: 0 days 0 hours 0 minutes 35 seconds 904 msec
