
                                 *****************
                                 * O   R   C   A *
                                 *****************

                                            #,                                       
                                            ###                                      
                                            ####                                     
                                            #####                                    
                                            ######                                   
                                           ########,                                 
                                     ,,################,,,,,                         
                               ,,#################################,,                 
                          ,,##########################################,,             
                       ,#########################################, ''#####,          
                    ,#############################################,,   '####,        
                  ,##################################################,,,,####,       
                ,###########''''           ''''###############################       
              ,#####''   ,,,,##########,,,,          '''####'''          '####       
            ,##' ,,,,###########################,,,                        '##       
           ' ,,###''''                  '''############,,,                           
         ,,##''                                '''############,,,,        ,,,,,,###''
      ,#''                                            '''#######################'''  
     '                                                          ''''####''''         
             ,#######,   #######,   ,#######,      ##                                
            ,#'     '#,  ##    ##  ,#'     '#,    #''#        ,####,    ,#,          
            ##       ##  ##   ,#'  ##            #'  '#       #'       ,# #          
            ##       ##  #######   ##           ,######,      #####,      #          
            '#,     ,#'  ##    ##  '#,     ,#' ,#      #,     #,   #      #          
             '#######'   ##     ##  '#######'  #'      '#     '####' #    #          



                #########################################################
                #                        -***-                          #
                #          Department of theory and spectroscopy        #
                #                                                       #
                #                      Frank Neese                      #
                #                                                       #
                #     Directorship, Architecture, Infrastructure        #
                #                    SHARK, DRIVERS                     #
                #        Core code/Algorithms in most modules           #
                #                                                       #
                #        Max Planck Institute fuer Kohlenforschung      #
                #                Kaiser Wilhelm Platz 1                 #
                #                 D-45470 Muelheim/Ruhr                 #
                #                      Germany                          #
                #                                                       #
                #                  All rights reserved                  #
                #                        -***-                          #
                #########################################################


                         Program Version 6.1.0  -  RELEASE   -


 With contributions from (in alphabetic order):
[Max-Planck-Institut fuer Kohlenforschung]                               
  Daniel Aravena         : Magnetic Suceptibility                        
  Michael Atanasov       : Ab Initio Ligand Field Theory (pilot matlab implementation)
  Alexander A. Auer      : GIAO ZORA, VPT2 properties, NMR spectrum      
  Ute Becker             : All parallelization in ORCA, NUMFREQ, NUMCALC 
  Giovanni Bistoni       : ED, misc. LED, open-shell LED, HFLD           
  Dmytro Bykov           : pre 5.0 version of the SCF Hessian            
  Marcos Casanova-Páez   : Triplet and SCS-CIS(D). UHF-(DLPNO)-IP/EA/STEOM-CCSD. UHF-CVS-IP/STEOM-CCSD   
  Vijay G. Chilkuri      : MRCI spin determinant printing, contributions to CSF-ICE 
  Pauline Colinet        : FMM embedding                                 
  Dipayan Datta          : RHF DLPNO-CCSD density                        
  Achintya Kumar Dutta   : EOM-CC, STEOM-CC                              
  Nicolas Foglia         : Exact transition moments, OPA infrastructure, MCD improvements    
  Dmitry Ganyushin       : Spin-Orbit,Spin-Spin,Magnetic field MRCI      
  Miquel Garcia-Rates    : C-PCM and meta-GGA Hessian, CCSD/C-PCM, Gaussian charge scheme 
  Tiago L. C. Gouveia    : GS-ROHF, GS-ROCIS                             
  Yang Guo               : DLPNO-NEVPT2, F12-NEVPT2, CIM, IAO-localization        
  Andreas Hansen         : Spin unrestricted coupled pair/coupled cluster methods 
  Ingolf Harden          : AUTO-CI MPn and infrastructure                
  Benjamin Helmich-Paris : MC-RPA, TRAH-(SCF,CASSCF), AVAS, COSX integrals, SCF dyn. polar., MC-PDFT, srDFT 
  Lee Huntington         : MR-EOM, pCC                                   
  Robert Izsak           : Overlap fitted RIJCOSX, COSX-SCS-MP3, EOM     
  Riya Kayal             : Wick's Theorem for AUTO-CI, AUTO-CI UHF-CCSDT 
  Emily Kempfer          : AUTO-CI RHF CISDT and CCSDT, approximate NEVPT4
  Christian Kollmar      : KDIIS, OOCD, Brueckner-CCSD(T), CCSD density, CASPT2, CASPT2-K, improved NEVPT2 
  Axel Koslowski         : Symmetry handling                             
  Simone Kossmann        : meta-GGA functionals, TD-DFT gradient, OOMP2, (MP2 Hessian; deprecated post 5.0) 
  Lucas Lang             : DCDCAS, Hyperfine gauge corrections, ICE-SOC+SSC
  Marvin Lechner         : AUTO-CI (C++ implementation), FIC-MRCC        
  Spencer Leger          : CASSCF response                               
  Dagmar Lenk            : GEPOL surface, SMD, ORCA-2-JSON               
  Dimitrios Liakos       : Extrapolation schemes; Compound Job, Property file
  Dimitrios Manganas     : Further ROCIS development; embedding schemes. LFT, Crystal Embedding 
  Dimitrios Pantazis     : SARC Basis sets                               
  Anastasios Papadopoulos: AUTO-CI, single reference methods and gradients 
  Taras Petrenko         : pre 6.0 DFT Hessian and TD-DFT gradient,  ECA, NRVS 
  Petra Pikulova         : Analytic Raman intensities                    
  Peter Pinski           : DLPNO-MP2, DLPNO-MP2 Gradient                 
  Shashank Vittal Rao    : ES-AILFT, MagRelax                            
  Christoph Reimann      : Effective Core Potentials                     
  Marius Retegan         : Local ZFS, SOC                                
  Christoph Riplinger    : Optimizer, TS searches, QM/MM, DLPNO-CCSD(T), (RO)-DLPNO pert. Triples 
  Michael Roemelt        : Original ROCIS implementation, recursive CI coupling coefficients
  Masaaki Saitow         : Open-shell DLPNO-CCSD energy and density      
  Barbara Sandhoefer     : DKH picture change effects                    
  Yorick L. A. Schmerwitz: GMF and freeze-and-release deltaSCF, NEB S-IDPP initial path                    
  Kantharuban Sivalingam : CASSCF convergence/infrastructure, NEVPT2, NEVPT3, NEVPT4(SD), FIC-MRCI and CEPA variants
  Bernardo de Souza      : ESD, SOC TD-DFT                               
  Georgi L. Stoychev     : AutoAux, RI-MP2 NMR, DLPNO-MP2 response, X2C  
  Van Anh Tran           : RI-MP2 g-tensors                              
  Willem Van den Heuvel  : Paramagnetic NMR                              
  Zikuan Wang            : NOTCH, Electric field optimization            
  Frank Wennmohs         : Technical directorship and infrastructure     
  Hang Xu                : AUTO-CI-Response properties                   
                                                                         
[FACCTs GmbH]                                                            
  Markus Bursch, Nicolas Foglia, Miquel Garcia-Rates, Ingolf Harden, Hagen Neugebauer, Anastasios Papadopoulos, 
  Christoph Riplinger, Bernardo de Souza, Georgi L. Stoychev                                                    
                                                                 
  APM, various basis sets, CI-OPT, improved COSX, DLPNO-Multilevel,           
  DOCKER, DRACO, updates on ESD, Fragmentator, GOAT, IRC, LR-CPCM, L-BFGS, MBIS, meta-GGA TD-DFT gradient, ML-optimized integration grids, 
  MM, NACMEs, nearIR, NEB, NEB-TS, NL-DFT gradient (VV10), 2- and 3-layer-ONIOM, interface openCOSMO-RS, QMMM,   
  Crystal-QMMM, RESP, rigid body optimization, SF, symmetry and pop. for TD-DFT, various functionals, SOLVATOR                                   
                                                                         
[Other institutions]                                                     
  V. Asgeirsson          : NEB                                           
  Christoph Bannwarth    : sTDA-DFT, sTD-DFT, PBEh-3c, B97-3c, D3        
  Giovanni Bistoni       : ETS/NOCV, ADLD/ADEX, COVALED                  
  Martin Brehm           : Molecular dynamics                            
  Ronald Cardenas        : ETS/NOCV                                      
  Martina Colucci        : COVALED                                       
  Sebastian Ehlert       : rSCAN, r2SCAN, r2SCAN-3c, D4, dhf basis sets  
  Marvin Friede          : D4 for Fr, Ra, Ac-Lr                          
  Lars Goerigk           : TD-DFT with DH, B97 family of functionals     
  Stefan Grimme          : VdW corrections, initial TS optimization, DFT functionals, gCP, sTDA/sTD-DF 
  Waldemar Hujo          : DFT-NL                                        
  H. Jonsson             : NEB                                           
  Holger Kruse           : gCP                                           
  Marcel Mueller         : wB97X-3c, vDZP basis set                      
  Hagen Neugebauer       : wr2SCAN, Native XTB                           
  Gianluca Regni         : ADLD/ADEX                                     
  Tobias Risthaus        : pre 6.0 range-separated hybrid DFT and stability analysis
  Lukas Wittmann         : regularized MP2, r2SCAN double-hybrids, wr2SCAN        
                                                                         
We gratefully acknowledge several colleagues who have allowed us to      
interface, adapt or use parts of their codes:                            
  Ed Valeev, F. Pavosevic, A. Kumar             : LibInt (2-el integral package), F12 methods 
  Garnet Chan, S. Sharma, J. Yang, R. Olivares  : DMRG                   
  Ulf Ekstrom                                   : XCFun DFT Library      
  Mihaly Kallay                                 : mrcc  (arbitrary order and MRCC methods)
  Frank Weinhold                                : gennbo (NPA and NBO analysis)           
  Simon Mueller                                 : openCOSMO-RS                            
  Christopher J. Cramer and Donald G. Truhlar   : smd solvation model                     
  S Lehtola, MJT Oliveira, MAL Marques          : LibXC Library                           
  Liviu Ungur et al                             : ANISO software                          


 Your calculation uses the libint2 library for the computation of 2-el integrals
 For citations please refer to: http://libint.valeyev.net

 Your ORCA version has been built with support for libXC version: 7.0.0
 For citations please refer to: https://libxc.gitlab.io

 This ORCA versions uses:
   CBLAS   interface :  Fast vector & matrix operations
   LAPACKE interface :  Fast linear algebra routines
   Shared memory     :  Shared parallel matrices


  ***********************************
  * Starting time: Fri Sep 12 16:24:57 2025
  * Host name:     DESKTOP-SI45VP7
  * Process ID:    13828
  * Working dir.:  C:\orca_jobs\ex2
  ***********************************

================================================================================

----- Orbital basis set information -----
Your calculation utilizes the basis: def2-TZVP
   F. Weigend and R. Ahlrichs, Phys. Chem. Chem. Phys. 7, 3297 (2005).

----- AuxJ basis set information -----
Your calculation utilizes the auxiliary basis: def2/J
   H-Rn: F. Weigend, Phys. Chem. Chem. Phys. 8, 1057 (2006).
   Fr-Lr: K. Eichkorn, F. Weigend, O. Treutler, R. Ahlrichs; Theor. Chem. Acc. 97, 119 (1997).

================================================================================
                                        WARNINGS
                       Please study these warnings very carefully!
================================================================================



WARNING: Found flag for RIJCOSX approximation but no HF exchange needed!
  ===> : RIJCOSX  will be disabled and Split-RI-J is turned on

WARNING: CIS/ROCIS methods need fully converged wavefunctions
  ===> : Setting SCFConvForced true
         You can overwrite this default with %scf ConvForced false 


================================================================================
                                       INPUT FILE
================================================================================
NAME = PBE_excited.INP
|  1> ! PBE def2-TZVP RIJCOSX def2/J TightSCF
|  2> 
|  3> %pal 
|  4>   nprocs 20
|  5> end
|  6> 
|  7> %scf
|  8>   MaxIter   1000
|  9> end
| 10> 
| 11> %output
| 12>   Print[P_Mulliken] 1
| 13>   Print[P_Loewdin] 1
| 14>   XYZFile true
| 15> end
| 16> 
| 17> %TDDFT
| 18>    NROOTS   5
| 19> end
| 20> 
| 21> * xyz 0 1
| 22>   C          -0.02705787609866     -1.86214696269581      0.00303940578589
| 23>   C           0.03672413175970     -1.12207944830625      1.18452828982354
| 24>   C           0.10189003312396      0.26742709525885      1.11907508485244
| 25>   C           0.10523317097478      0.94535396738549     -0.11295521784673
| 26>   C           0.04059217369851      0.18884311285097     -1.28982267998135
| 27>   C          -0.02489572969630     -1.20139202998021     -1.22905064940789
| 28>   H          -0.07823544512947     -2.95017150441283      0.04955521586775
| 29>   H           0.03636137530936     -1.61280542937935      2.15801962040412
| 30>   H           0.04308340874814      0.71862655355416     -2.24331335247240
| 31>   H          -0.07482518183562     -1.77461379360371     -2.15597211087877
| 32>   O           0.16842493664599      2.29923635838905     -0.20207325970617
| 33>   H           0.20776053547834      2.64997833976228      0.71232906940613
| 34>   Cl          0.18269769702125      1.23055813117735      2.57844014415343
| 35> *
| 36> 
| 37> 
| 38>                          ****END OF INPUT****
================================================================================

                       ****************************
                       * Single Point Calculation *
                       ****************************

---------------------------------
CARTESIAN COORDINATES (ANGSTROEM)
---------------------------------
  C     -0.027058   -1.862147    0.003039
  C      0.036724   -1.122079    1.184528
  C      0.101890    0.267427    1.119075
  C      0.105233    0.945354   -0.112955
  C      0.040592    0.188843   -1.289823
  C     -0.024896   -1.201392   -1.229051
  H     -0.078235   -2.950172    0.049555
  H      0.036361   -1.612805    2.158020
  H      0.043083    0.718627   -2.243313
  H     -0.074825   -1.774614   -2.155972
  O      0.168425    2.299236   -0.202073
  H      0.207761    2.649978    0.712329
  Cl     0.182698    1.230558    2.578440

----------------------------
CARTESIAN COORDINATES (A.U.)
----------------------------
  NO LB      ZA    FRAG     MASS         X           Y           Z
   0 C     6.0000    0    12.011   -0.051132   -3.518948    0.005744
   1 C     6.0000    0    12.011    0.069399   -2.120423    2.238434
   2 C     6.0000    0    12.011    0.192544    0.505364    2.114745
   3 C     6.0000    0    12.011    0.198862    1.786460   -0.213454
   4 C     6.0000    0    12.011    0.076708    0.356862   -2.437412
   5 C     6.0000    0    12.011   -0.047046   -2.270302   -2.322569
   6 H     1.0000    0     1.008   -0.147844   -5.575016    0.093646
   7 H     1.0000    0     1.008    0.068713   -3.047761    4.078066
   8 H     1.0000    0     1.008    0.081416    1.358007   -4.239248
   9 H     1.0000    0     1.008   -0.141399   -3.353534   -4.074197
  10 O     8.0000    0    15.999    0.318277    4.344927   -0.381863
  11 H     1.0000    0     1.008    0.392611    5.007733    1.346107
  12 Cl   17.0000    0    35.453    0.345249    2.325418    4.872546

--------------------------------
INTERNAL COORDINATES (ANGSTROEM)
--------------------------------
 C      0   0   0     0.000000000000     0.00000000     0.00000000
 C      1   0   0     1.395594516142     0.00000000     0.00000000
 C      2   1   0     1.392572853158   119.43714767     0.00000000
 C      3   2   1     1.406234222059   121.48770389     0.00000000
 C      4   3   2     1.400537095185   118.40421177     0.00000000
 C      5   4   3     1.393102888359   120.30206136     0.00000000
 H      1   2   3     1.090220283951   119.68590493   180.00226812
 H      2   1   3     1.090182319985   121.14816078   179.99602585
 H      5   4   3     1.090789238498   118.16905499   179.97955609
 H      6   5   4     1.090990163209   119.30252221   179.99360901
 O      4   3   2     1.358283016644   122.55564270   180.01486206
 H     11   4   3     0.980152460752   107.29805702     0.03804321
 Cl     3   2   1     1.750399282222   120.79694096   179.98748790

---------------------------
INTERNAL COORDINATES (A.U.)
---------------------------
 C      0   0   0     0.000000000000     0.00000000     0.00000000
 C      1   0   0     2.637291429511     0.00000000     0.00000000
 C      2   1   0     2.631581314001   119.43714767     0.00000000
 C      3   2   1     2.657397559840   121.48770389     0.00000000
 C      4   3   2     2.646631550297   118.40421177     0.00000000
 C      5   4   3     2.632582935373   120.30206136     0.00000000
 H      1   2   3     2.060217762313   119.68590493   180.00226812
 H      2   1   3     2.060146020815   121.14816078   179.99602585
 H      5   4   3     2.061292930590   118.16905499   179.97955609
 H      6   5   4     2.061672623266   119.30252221   179.99360901
 O      4   3   2     2.566782913813   122.55564270   180.01486206
 H     11   4   3     1.852219720311   107.29805702     0.03804321
 Cl     3   2   1     3.307775268412   120.79694096   179.98748790

---------------------
BASIS SET INFORMATION
---------------------
There are 4 groups of distinct atoms

 Group   1 Type C   : 11s6p2d1f contracted to 5s3p2d1f pattern {62111/411/11/1}
 Group   2 Type H   : 5s1p contracted to 3s1p pattern {311/1}
 Group   3 Type O   : 11s6p2d1f contracted to 5s3p2d1f pattern {62111/411/11/1}
 Group   4 Type Cl  : 14s9p3d1f contracted to 5s5p2d1f pattern {73211/51111/21/1}

Atom   0C    basis set group =>   1
Atom   1C    basis set group =>   1
Atom   2C    basis set group =>   1
Atom   3C    basis set group =>   1
Atom   4C    basis set group =>   1
Atom   5C    basis set group =>   1
Atom   6H    basis set group =>   2
Atom   7H    basis set group =>   2
Atom   8H    basis set group =>   2
Atom   9H    basis set group =>   2
Atom  10O    basis set group =>   3
Atom  11H    basis set group =>   2
Atom  12Cl   basis set group =>   4
---------------------------------
AUXILIARY/J BASIS SET INFORMATION
---------------------------------
There are 4 groups of distinct atoms

 Group   1 Type C   : 12s5p4d2f1g contracted to 6s4p3d1f1g pattern {711111/2111/211/2/1}
 Group   2 Type H   : 5s2p1d contracted to 3s1p1d pattern {311/2/1}
 Group   3 Type O   : 12s5p4d2f1g contracted to 6s4p3d1f1g pattern {711111/2111/211/2/1}
 Group   4 Type Cl  : 14s5p5d2f1g contracted to 8s4p3d1f1g pattern {71111111/2111/311/2/1}

Atom   0C    basis set group =>   1
Atom   1C    basis set group =>   1
Atom   2C    basis set group =>   1
Atom   3C    basis set group =>   1
Atom   4C    basis set group =>   1
Atom   5C    basis set group =>   1
Atom   6H    basis set group =>   2
Atom   7H    basis set group =>   2
Atom   8H    basis set group =>   2
Atom   9H    basis set group =>   2
Atom  10O    basis set group =>   3
Atom  11H    basis set group =>   2
Atom  12Cl   basis set group =>   4


           ************************************************************
           *        Program running with 20 parallel MPI-processes    *
           *              working on a common directory               *
           ************************************************************
------------------------------------------------------------------------------
                             ORCA STARTUP CALCULATIONS
                           -- RI-GTO INTEGRALS CHOSEN --
------------------------------------------------------------------------------
------------------------------------------------------------------------------
                   ___                                                        
                  /   \      - P O W E R E D   B Y -                         
                 /     \                                                     
                 |  |  |   _    _      __       _____    __    __             
                 |  |  |  | |  | |    /  \     |  _  \  |  |  /  |          
                  \  \/   | |  | |   /    \    | | | |  |  | /  /          
                 / \  \   | |__| |  /  /\  \   | |_| |  |  |/  /          
                |  |  |   |  __  | /  /__\  \  |    /   |      \           
                |  |  |   | |  | | |   __   |  |    \   |  |\   \          
                \     /   | |  | | |  |  |  |  | |\  \  |  | \   \       
                 \___/    |_|  |_| |__|  |__|  |_| \__\ |__|  \__/        
                                                                              
                      - O R C A' S   B I G   F R I E N D -                    
                                      &                                       
                       - I N T E G R A L  F E E D E R -                       
                                                                              
 v1 FN, 2020, v2 2021, v3 2022-2024                                           
------------------------------------------------------------------------------


----------------------
SHARK INTEGRAL PACKAGE
----------------------

Number of atoms                             ...     13
Number of basis functions                   ...    284
Number of shells                            ...    110
Maximum angular momentum                    ...      3
Integral batch strategy                     ... SHARK/LIBINT Hybrid
RI-J (if used) integral strategy            ... SPLIT-RIJ (Revised 2003 algorithm where possible)
Printlevel                                  ...      1
Contraction scheme used                     ... SEGMENTED contraction
Prescreening option                         ... SCHWARTZ
   Thresh                                   ... 2.500e-11
   Tcut                                     ... 2.500e-12
   Tpresel                                  ... 2.500e-12 
Coulomb Range Separation                    ... NOT USED
Exchange Range Separation                   ... NOT USED
Multipole approximations                    ... NOT USED
Finite Nucleus Model                        ... NOT USED
CABS basis                                  ... NOT available
Auxiliary Coulomb fitting basis             ... AVAILABLE
   # of basis functions in Aux-J            ...    449
   # of shells in Aux-J                     ...    147
   Maximum angular momentum in Aux-J        ...      4
Auxiliary J/K fitting basis                 ... NOT available
Auxiliary Correlation fitting basis         ... NOT available
Auxiliary 'external' fitting basis          ... NOT available

Checking pre-screening integrals            ... done (  0.0 sec) Dimension = 110
   => SHARK Basis and OBASIS are compatible. Storing Pre-screening
Shell pair information
Shell pair cut-off parameter TPreSel        ...   2.5e-12
Total number of shell pairs                 ...      6105
Shell pairs after pre-screening             ...      5611
Total number of primitive shell pairs       ...     19708
Primitive shell pairs kept                  ...     13465
          la=0 lb=0:   1339 shell pairs
          la=1 lb=0:   1564 shell pairs
          la=1 lb=1:    470 shell pairs
          la=2 lb=0:    827 shell pairs
          la=2 lb=1:    476 shell pairs
          la=2 lb=2:    132 shell pairs
          la=3 lb=0:    404 shell pairs
          la=3 lb=1:    237 shell pairs
          la=3 lb=2:    126 shell pairs
          la=3 lb=3:     36 shell pairs

Checking whether 4 symmetric matrices of dimension 284 fit in memory
:Max Core in MB      =   4096.00
 MB in use           =      9.07
 MB left             =   4086.93
 MB needed           =      1.24
 Data fit in memory  = YES
Calculating RI/J V-Matrix + Cholesky decomp.... done (  0.0 sec)
Calculating Nuclear repulsion               ... done (  0.0 sec) ENN=    405.370005336926 Eh

Diagonalization of the overlap matrix:
Smallest eigenvalue                        ... 1.106e-05
Time for diagonalization                   ...    0.004 sec
Threshold for overlap eigenvalues          ... 1.000e-07
Number of eigenvalues below threshold      ... 0
Time for construction of square roots      ...    0.004 sec
Total time needed                          ...    0.011 sec

-------------------
DFT GRID GENERATION
-------------------

General Integration Accuracy     IntAcc      ... 4.388
Radial Grid Type                 RadialGrid  ... OptM3 with GC (2021)
Angular Grid (max. ang.)         AngularGrid ... 4 (Lebedev-302)
Angular grid pruning method      GridPruning ... 4 (adaptive)
Weight generation scheme         WeightScheme... mBecke (2022)
Basis function cutoff            BFCut       ... 1.0000e-11
Integration weight cutoff        WCut        ... 1.0000e-14
Partially contracted basis set               ... off
Rotationally invariant grid construction     ... off
Angular grids for H and He will be reduced by one unit

Total number of grid points                  ...    65610
Total number of batches                      ...     1031
Average number of points per batch           ...       63
Average number of grid points per atom       ...     5047
Grids setup in   0.2 sec
Initializing property integral containers    ... done (  0.0 sec)

SHARK setup successfully completed in   0.4 seconds

Maximum memory used throughout the entire STARTUP-calculation: 21.6 MB


           ************************************************************
           *        Program running with 20 parallel MPI-processes    *
           *              working on a common directory               *
           ************************************************************
-------------------------------------------------------------------------------
                                 ORCA GUESS
                   Start orbitals & Density for SCF / CASSCF
-------------------------------------------------------------------------------

------------
SCF SETTINGS
------------
Hamiltonian:
 Density Functional     Method          .... DFT(GTOs)
 Exchange Functional    Exchange        .... PBE
   PBE kappa parameter   XKappa         ....  0.804000
   PBE mue parameter    XMuePBE         ....  0.219520
 Correlation Functional Correlation     .... PBE
   PBE beta parameter  CBetaPBE         ....  0.066725
 LDA part of GGA corr.  LDAOpt          .... PW91-LDA
 Gradients option       PostSCFGGA      .... off
   NL short-range parameter             ....  6.400000
 RI-approximation to the Coulomb term is turned on
   Number of AuxJ basis functions       .... 449


General Settings:
 Integral files         IntName         .... PBE_excited
 Hartree-Fock type      HFTyp           .... RHF
 Total Charge           Charge          ....    0
 Multiplicity           Mult            ....    1
 Number of Electrons    NEL             ....   66
 Basis Dimension        Dim             ....  284
 Nuclear Repulsion      ENuc            ....    405.3700053369 Eh

Convergence Acceleration:
 AO-DIIS                CNVDIIS         .... on
   Start iteration      DIISMaxIt       ....    12
   Startup error        DIISStart       ....  0.200000
   # of expansion vecs  DIISMaxEq       ....     5
   Bias factor          DIISBfac        ....   1.050
   Max. coefficient     DIISMaxC        ....  10.000
 MO-DIIS                CNVKDIIS        .... off
 Trust-Rad. Augm. Hess. CNVTRAH         .... auto
   Auto Start mean grad. ratio tolernc. ....  1.125000
   Auto Start start iteration           ....    50
   Auto Start num. interpolation iter.  ....    10
   Max. Number of Micro iterations      ....    24
   Max. Number of Macro iterations      .... Maxiter - #DIIS iter
   Number of Davidson start vectors     ....     2
   Converg. threshold    (grad. norm)   ....   1.000e-05
   Grad. Scal. Fac. for Micro threshold ....   0.100
   Minimum threshold for Micro iter.    ....   1.000e-02
   NR start threshold (gradient norm)   ....   1.000e-04
   Initial trust radius                 ....   0.400
   Minimum AH scaling param. (alpha)    ....   1.000
   Maximum AH scaling param. (alpha)    .... 1000.000
   Quad. conv. algorithm                .... NR
   White noise on init. David. guess    .... on
   Maximum white noise                  ....   0.010
   Pseudo random numbers                .... off
   Inactive MOs                         .... canonical
   Orbital update algorithm             .... Taylor
   Preconditioner                       .... Diag
   Full preconditioner red. dimension   ....   250
 SOSCF                 CNVSOSCF           .... on
   Start iteration     SOSCFMaxIt         ....   150
   Startup grad/error  SOSCFStart         ....  0.003300
   Hessian update      SOSCFHessUp        .... L-BFGS
   Autom. constraints  SOSCFAutoConstrain .... off
 Level Shifting         CNVShift        .... on
   Level shift para.    LevelShift      ....    0.2500
   Turn off err/grad.   ShiftErr        ....    0.0010
 Zerner damping         CNVZerner       .... off
 Static damping         CNVDamp         .... on
   Fraction old density DampFac         ....    0.7000
   Max. Damping (<1)    DampMax         ....    0.9800
   Min. Damping (>=0)   DampMin         ....    0.0000
   Turn off err/grad.   DampErr         ....    0.1000

SCF Procedure:
 Maximum # iterations   MaxIter         ....  1000
 SCF integral mode      SCFMode         .... Direct
   Integral package                     .... SHARK and LIBINT hybrid scheme
 Reset frequency        DirectResetFreq ....    20
 Integral Threshold     Thresh          ....  2.500e-11 Eh
 Primitive CutOff       TCut            ....  2.500e-12 Eh

Convergence Tolerance:
 Convergence Check Mode ConvCheckMode   .... Total+1el-Energy
 Convergence forced     ConvForced      .... 1
 Energy Change          TolE            ....  1.000e-08 Eh
 1-El. energy change                    ....  1.000e-05 Eh
 Orbital Gradient       TolG            ....  1.000e-05
 Orbital Rotation angle TolX            ....  1.000e-05
 DIIS Error             TolErr          ....  5.000e-07

------------------------------
INITIAL GUESS: MODEL POTENTIAL
------------------------------
Loading Hartree-Fock densities                     ... done
Calculating cut-offs                               ... done
Initializing the effective Hamiltonian             ... done
Setting up the integral package (SHARK)            ... done
Starting the Coulomb interaction                   ... done (   0.0 sec)
Making the grid                                    ... done (   0.1 sec)
Mapping shells                                     ... done
Starting the XC term evaluation                    ... done (   0.0 sec)
  promolecular density results
     # of electrons  =     65.997342640
     EX              =    -67.700925418
     EC              =     -2.303389853
     EX+EC           =    -70.004315271
Transforming the Hamiltonian                       ... done (   0.0 sec)
Diagonalizing the Hamiltonian                      ... done (   0.0 sec)
Back transforming the eigenvectors                 ... done (   0.0 sec)
Now organizing SCF variables                       ... done
                      ------------------
                      INITIAL GUESS DONE (   0.2 sec)
                      ------------------
             **** ENERGY FILE WAS UPDATED (PBE_excited.en.tmp) ****
Finished Guess after   0.3 sec
Maximum memory used throughout the entire GUESS-calculation: 14.0 MB


           ************************************************************
           *        Program running with 20 parallel MPI-processes    *
           *              working on a common directory               *
           ************************************************************

-------------------------------------------------------------------------------------------
                                      ORCA LEAN-SCF
                              memory conserving SCF solver
-------------------------------------------------------------------------------------------

----------------------------------------D-I-I-S--------------------------------------------
Iteration    Energy (Eh)           Delta-E    RMSDP     MaxDP     DIISErr   Damp  Time(sec)
-------------------------------------------------------------------------------------------
               ***  Starting incremental Fock matrix formation  ***
    1    -766.4740016581690725     0.00e+00  1.17e-02  2.05e-01  2.12e-01  0.700   0.3
    2    -766.5604668640246473    -8.65e-02  1.06e-02  1.91e-01  7.70e-02  0.700   0.3
                               ***Turning on AO-DIIS***
    3    -766.5878236004461996    -2.74e-02  3.98e-03  5.15e-02  1.81e-02  0.700   0.2
    4    -766.6044220849523754    -1.66e-02  5.09e-03  3.72e-02  1.20e-02  0.000   0.2
    5    -766.6437210860483447    -3.93e-02  3.72e-03  6.65e-02  1.47e-02  0.000   0.2
    6    -766.6443018247132386    -5.81e-04  1.10e-03  1.59e-02  4.14e-03  0.000   0.2
                              *** Initializing SOSCF ***
---------------------------------------S-O-S-C-F--------------------------------------
Iteration    Energy (Eh)           Delta-E    RMSDP     MaxDP     MaxGrad    Time(sec)
--------------------------------------------------------------------------------------
    7    -766.6443660373167859    -6.42e-05  4.42e-04  6.03e-03  6.29e-04     0.3
               *** Restarting incremental Fock matrix formation ***
    8    -766.6443694116401275    -3.37e-06  1.93e-04  1.77e-03  1.47e-04     0.2
    9    -766.6443684111882249     1.00e-06  7.74e-05  9.00e-04  2.19e-04     0.2
   10    -766.6443702133790339    -1.80e-06  5.31e-05  4.00e-04  4.95e-05     0.2
   11    -766.6443700133413586     2.00e-07  2.17e-05  1.83e-04  9.23e-05     0.2
   12    -766.6443703200291111    -3.07e-07  1.21e-05  9.20e-05  1.18e-05     0.2
   13    -766.6443703144277606     5.60e-09  8.54e-06  1.63e-04  1.65e-05     0.4
                 **** Energy Check signals convergence ****

               *****************************************************
               *                     SUCCESS                       *
               *           SCF CONVERGED AFTER  13 CYCLES          *
               *****************************************************

             **** ENERGY FILE WAS UPDATED (PBE_excited.en.tmp) ****

----------------
TOTAL SCF ENERGY
----------------

Total Energy       :       -766.64437032573937 Eh          -20861.45389 eV

Components:
Nuclear Repulsion  :        405.37000533692645 Eh           11030.67863 eV
Electronic Energy  :      -1172.01437566266577 Eh          -31892.13253 eV
One Electron Energy:      -1855.25168246465182 Eh          -50483.96484 eV
Two Electron Energy:        683.23730680198594 Eh           18591.83231 eV

Virial components:
Potential Energy   :      -1531.31393639990688 Eh          -41669.17063 eV
Kinetic Energy     :        764.66956607416751 Eh           20807.71674 eV
Virial Ratio       :          2.00258255897604

DFT components:
N(Alpha)           :       33.000005199741 electrons
N(Beta)            :       33.000005199741 electrons
N(Total)           :       66.000010399481 electrons
E(X)               :      -68.409042608320 Eh       
E(C)               :       -2.306121075547 Eh       
E(XC)              :      -70.715163683867 Eh       

---------------
SCF CONVERGENCE
---------------

  Last Energy change         ...   -5.6014e-09  Tolerance :   1.0000e-08
  Last MAX-Density change    ...    1.6333e-04  Tolerance :   1.0000e-07
  Last RMS-Density change    ...    8.5384e-06  Tolerance :   5.0000e-09
  Last DIIS Error            ...    6.2854e-04  Tolerance :   5.0000e-07
  Last Orbital Gradient      ...    1.6502e-05  Tolerance :   1.0000e-05
  Last Orbital Rotation      ...    1.9331e-05  Tolerance :   1.0000e-05


----------------
ORBITAL ENERGIES
----------------

  NO   OCC          E(Eh)            E(eV) 
   0   2.0000    -100.680690     -2739.6609 
   1   2.0000     -18.792180      -511.3612 
   2   2.0000      -9.961071      -271.0545 
   3   2.0000      -9.950954      -270.7792 
   4   2.0000      -9.904124      -269.5049 
   5   2.0000      -9.897744      -269.3313 
   6   2.0000      -9.895589      -269.2727 
   7   2.0000      -9.893903      -269.2268 
   8   2.0000      -9.194168      -250.1860 
   9   2.0000      -7.017280      -190.9499 
  10   2.0000      -7.007544      -190.6850 
  11   2.0000      -7.007333      -190.6792 
  12   2.0000      -0.987621       -26.8745 
  13   2.0000      -0.819215       -22.2920 
  14   2.0000      -0.771272       -20.9874 
  15   2.0000      -0.686397       -18.6778 
  16   2.0000      -0.668503       -18.1909 
  17   2.0000      -0.568315       -15.4646 
  18   2.0000      -0.559675       -15.2295 
  19   2.0000      -0.502983       -13.6869 
  20   2.0000      -0.461274       -12.5519 
  21   2.0000      -0.432592       -11.7714 
  22   2.0000      -0.406091       -11.0503 
  23   2.0000      -0.391813       -10.6618 
  24   2.0000      -0.388161       -10.5624 
  25   2.0000      -0.357474        -9.7274 
  26   2.0000      -0.338653        -9.2152 
  27   2.0000      -0.324519        -8.8306 
  28   2.0000      -0.313821        -8.5395 
  29   2.0000      -0.304242        -8.2789 
  30   2.0000      -0.294225        -8.0063 
  31   2.0000      -0.233406        -6.3513 
  32   2.0000      -0.208568        -5.6754 
  33   0.0000      -0.054749        -1.4898 
  34   0.0000      -0.039299        -1.0694 
  35   0.0000      -0.021623        -0.5884 
  36   0.0000       0.020359         0.5540 
  37   0.0000       0.038787         1.0554 
  38   0.0000       0.059437         1.6174 
  39   0.0000       0.083268         2.2658 
  40   0.0000       0.090738         2.4691 
  41   0.0000       0.090902         2.4736 
  42   0.0000       0.106645         2.9020 
  43   0.0000       0.148032         4.0282 
*Only the first 10 virtual orbitals were printed.

                    ********************************
                    * MULLIKEN POPULATION ANALYSIS *
                    ********************************

-----------------------
MULLIKEN ATOMIC CHARGES
-----------------------
   0 C :   -0.116421
   1 C :   -0.172710
   2 C :    0.146315
   3 C :    0.141952
   4 C :   -0.192833
   5 C :   -0.086829
   6 H :    0.105217
   7 H :    0.117322
   8 H :    0.108920
   9 H :    0.105097
  10 O :   -0.321493
  11 H :    0.297421
  12 Cl:   -0.131956
Sum of atomic charges:    0.0000000

--------------------------------
MULLIKEN REDUCED ORBITAL CHARGES
--------------------------------
  0 C s       :     3.183207  s :     3.183207
      pz      :     0.910135  p :     2.842256
      px      :     0.996858
      py      :     0.935263
      dz2     :     0.028513  d :     0.084106
      dxz     :     0.021943
      dyz     :     0.018655
      dx2y2   :     0.009609
      dxy     :     0.005386
      f0      :     0.001719  f :     0.006852
      f+1     :     0.001175
      f-1     :     0.000794
      f+2     :     0.000888
      f-2     :     0.001140
      f+3     :     0.000499
      f-3     :     0.000637

  1 C s       :     3.217403  s :     3.217403
      pz      :     0.950639  p :     2.858979
      px      :     0.978165
      py      :     0.930175
      dz2     :     0.020724  d :     0.089243
      dxz     :     0.008421
      dyz     :     0.025143
      dx2y2   :     0.012089
      dxy     :     0.022867
      f0      :     0.001420  f :     0.007085
      f+1     :     0.000856
      f-1     :     0.000799
      f+2     :     0.001246
      f-2     :     0.000519
      f+3     :     0.001635
      f-3     :     0.000611

  2 C s       :     3.162870  s :     3.162870
      pz      :     0.721919  p :     2.533504
      px      :     1.068075
      py      :     0.743511
      dz2     :     0.033438  d :     0.147509
      dxz     :     0.024421
      dyz     :     0.045791
      dx2y2   :     0.017586
      dxy     :     0.026273
      f0      :     0.002166  f :     0.009802
      f+1     :     0.001213
      f-1     :     0.001340
      f+2     :     0.001880
      f-2     :     0.000937
      f+3     :     0.001694
      f-3     :     0.000573

  3 C s       :     3.063878  s :     3.063878
      pz      :     0.939551  p :     2.595191
      px      :     0.939643
      py      :     0.715996
      dz2     :     0.034795  d :     0.183807
      dxz     :     0.024339
      dyz     :     0.062266
      dx2y2   :     0.015088
      dxy     :     0.047319
      f0      :     0.003393  f :     0.015172
      f+1     :     0.001670
      f-1     :     0.001451
      f+2     :     0.002638
      f-2     :     0.001191
      f+3     :     0.003093
      f-3     :     0.001737

  4 C s       :     3.253908  s :     3.253908
      pz      :     0.933768  p :     2.855426
      px      :     1.014821
      py      :     0.906837
      dz2     :     0.013620  d :     0.076481
      dxz     :     0.009425
      dyz     :     0.026815
      dx2y2   :     0.008546
      dxy     :     0.018074
      f0      :     0.001291  f :     0.007019
      f+1     :     0.000767
      f-1     :     0.000867
      f+2     :     0.001361
      f-2     :     0.000544
      f+3     :     0.001585
      f-3     :     0.000604

  5 C s       :     3.182091  s :     3.182091
      pz      :     0.936938  p :     2.812243
      px      :     0.962803
      py      :     0.912501
      dz2     :     0.015450  d :     0.085624
      dxz     :     0.009873
      dyz     :     0.031028
      dx2y2   :     0.009788
      dxy     :     0.019484
      f0      :     0.001411  f :     0.006872
      f+1     :     0.000948
      f-1     :     0.000812
      f+2     :     0.001269
      f-2     :     0.000365
      f+3     :     0.001544
      f-3     :     0.000524

  6 H s       :     0.872780  s :     0.872780
      pz      :     0.003741  p :     0.022003
      px      :     0.005255
      py      :     0.013007

  7 H s       :     0.860740  s :     0.860740
      pz      :     0.011371  p :     0.021939
      px      :     0.004906
      py      :     0.005662

  8 H s       :     0.869113  s :     0.869113
      pz      :     0.010918  p :     0.021966
      px      :     0.005139
      py      :     0.005910

  9 H s       :     0.873132  s :     0.873132
      pz      :     0.010515  p :     0.021770
      px      :     0.004937
      py      :     0.006319

 10 O s       :     3.757676  s :     3.757676
      pz      :     1.433669  p :     4.530667
      px      :     1.785302
      py      :     1.311696
      dz2     :     0.009257  d :     0.031556
      dxz     :     0.001740
      dyz     :     0.008229
      dx2y2   :     0.006365
      dxy     :     0.005965
      f0      :     0.000250  f :     0.001594
      f+1     :     0.000026
      f-1     :     0.000301
      f+2     :     0.000256
      f-2     :     0.000020
      f+3     :     0.000349
      f-3     :     0.000392

 11 H s       :     0.654201  s :     0.654201
      pz      :     0.021278  p :     0.048378
      px      :     0.015529
      py      :     0.011572

 12 Cls       :     5.905209  s :     5.905209
      pz      :     3.490794  p :    11.153309
      px      :     3.920038
      py      :     3.742477
      dz2     :     0.017201  d :     0.067925
      dxz     :     0.016109
      dyz     :     0.021799
      dx2y2   :     0.004883
      dxy     :     0.007932
      f0      :     0.000946  f :     0.005514
      f+1     :     0.000619
      f-1     :     0.001951
      f+2     :     0.000922
      f-2     :     0.000777
      f+3     :     0.000159
      f-3     :     0.000140



                     *******************************
                     * LOEWDIN POPULATION ANALYSIS *
                     *******************************

----------------------
LOEWDIN ATOMIC CHARGES
----------------------
   0 C :   -0.154545
   1 C :   -0.148731
   2 C :   -0.416685
   3 C :   -0.295106
   4 C :   -0.118055
   5 C :   -0.141365
   6 H :    0.146679
   7 H :    0.150679
   8 H :    0.153336
   9 H :    0.147839
  10 O :    0.109024
  11 H :    0.176823
  12 Cl:    0.390106

-------------------------------
LOEWDIN REDUCED ORBITAL CHARGES
-------------------------------
  0 C s       :     2.769618  s :     2.769618
      pz      :     1.061418  p :     2.962191
      px      :     0.914371
      py      :     0.986403
      dz2     :     0.137639  d :     0.380315
      dxz     :     0.076919
      dyz     :     0.101804
      dx2y2   :     0.050469
      dxy     :     0.013483
      f0      :     0.011856  f :     0.042421
      f+1     :     0.003751
      f-1     :     0.008255
      f+2     :     0.007639
      f-2     :     0.007603
      f+3     :     0.000665
      f-3     :     0.002652

  1 C s       :     2.772377  s :     2.772377
      pz      :     1.015559  p :     2.948079
      px      :     0.895634
      py      :     1.036886
      dz2     :     0.097986  d :     0.385273
      dxz     :     0.026473
      dyz     :     0.127838
      dx2y2   :     0.057327
      dxy     :     0.075651
      f0      :     0.009436  f :     0.043002
      f+1     :     0.004032
      f-1     :     0.007102
      f+2     :     0.007720
      f-2     :     0.003554
      f+3     :     0.005943
      f-3     :     0.005215

  2 C s       :     2.784352  s :     2.784352
      pz      :     0.957139  p :     2.980795
      px      :     0.976403
      py      :     1.047253
      dz2     :     0.147543  d :     0.591010
      dxz     :     0.080995
      dyz     :     0.209798
      dx2y2   :     0.068483
      dxy     :     0.084192
      f0      :     0.014514  f :     0.060528
      f+1     :     0.005939
      f-1     :     0.010674
      f+2     :     0.011934
      f-2     :     0.006923
      f+3     :     0.005434
      f-3     :     0.005112

  3 C s       :     2.723877  s :     2.723877
      pz      :     1.072868  p :     2.792377
      px      :     0.870944
      py      :     0.848564
      dz2     :     0.149853  d :     0.684086
      dxz     :     0.077969
      dyz     :     0.201628
      dx2y2   :     0.109832
      dxy     :     0.144804
      f0      :     0.020653  f :     0.094766
      f+1     :     0.008392
      f-1     :     0.012772
      f+2     :     0.017086
      f-2     :     0.007889
      f+3     :     0.015559
      f-3     :     0.012415

  4 C s       :     2.767815  s :     2.767815
      pz      :     0.986320  p :     2.947615
      px      :     0.918822
      py      :     1.042473
      dz2     :     0.080969  d :     0.360912
      dxz     :     0.025622
      dyz     :     0.143443
      dx2y2   :     0.050556
      dxy     :     0.060323
      f0      :     0.008878  f :     0.041712
      f+1     :     0.003512
      f-1     :     0.007449
      f+2     :     0.008304
      f-2     :     0.003497
      f+3     :     0.005205
      f-3     :     0.004866

  5 C s       :     2.770487  s :     2.770487
      pz      :     1.011888  p :     2.940464
      px      :     0.884575
      py      :     1.044001
      dz2     :     0.088023  d :     0.387787
      dxz     :     0.032011
      dyz     :     0.150473
      dx2y2   :     0.051040
      dxy     :     0.066240
      f0      :     0.010292  f :     0.042627
      f+1     :     0.004573
      f-1     :     0.007029
      f+2     :     0.008034
      f-2     :     0.002598
      f+3     :     0.005331
      f-3     :     0.004769

  6 H s       :     0.794502  s :     0.794502
      pz      :     0.010767  p :     0.058820
      px      :     0.014202
      py      :     0.033851

  7 H s       :     0.790291  s :     0.790291
      pz      :     0.030073  p :     0.059030
      px      :     0.013556
      py      :     0.015401

  8 H s       :     0.787337  s :     0.787337
      pz      :     0.028985  p :     0.059327
      px      :     0.014083
      py      :     0.016258

  9 H s       :     0.794059  s :     0.794059
      pz      :     0.027683  p :     0.058102
      px      :     0.013297
      py      :     0.017122

 10 O s       :     3.333966  s :     3.333966
      pz      :     1.439252  p :     4.479353
      px      :     1.678085
      py      :     1.362016
      dz2     :     0.017752  d :     0.072661
      dxz     :     0.000846
      dyz     :     0.023459
      dx2y2   :     0.015815
      dxy     :     0.014789
      f0      :     0.001193  f :     0.004995
      f+1     :     0.000060
      f-1     :     0.001051
      f+2     :     0.000668
      f-2     :     0.000027
      f+3     :     0.001011
      f-3     :     0.000985

 11 H s       :     0.670159  s :     0.670159
      pz      :     0.085116  p :     0.153018
      px      :     0.039437
      py      :     0.028465

 12 Cls       :     5.555330  s :     5.555330
      pz      :     3.434374  p :    10.935597
      px      :     3.846293
      py      :     3.654930
      dz2     :     0.028197  d :     0.107279
      dxz     :     0.023816
      dyz     :     0.034706
      dx2y2   :     0.008518
      dxy     :     0.012041
      f0      :     0.002323  f :     0.011688
      f+1     :     0.001306
      f-1     :     0.003730
      f+2     :     0.001903
      f-2     :     0.001860
      f+3     :     0.000307
      f-3     :     0.000260



                      *****************************
                      * MAYER POPULATION ANALYSIS *
                      *****************************

  NA   - Mulliken gross atomic population
  ZA   - Total nuclear charge
  QA   - Mulliken gross atomic charge
  VA   - Mayer's total valence
  BVA  - Mayer's bonded valence
  FA   - Mayer's free valence

  ATOM       NA         ZA         QA         VA         BVA        FA
  0 C      6.1164     6.0000    -0.1164     3.9472     3.9472    -0.0000
  1 C      6.1727     6.0000    -0.1727     3.9782     3.9782     0.0000
  2 C      5.8537     6.0000     0.1463     3.5802     3.5802     0.0000
  3 C      5.8580     6.0000     0.1420     4.1362     4.1362     0.0000
  4 C      6.1928     6.0000    -0.1928     3.9675     3.9675     0.0000
  5 C      6.0868     6.0000    -0.0868     3.9488     3.9488    -0.0000
  6 H      0.8948     1.0000     0.1052     0.9657     0.9657    -0.0000
  7 H      0.8827     1.0000     0.1173     0.9729     0.9729    -0.0000
  8 H      0.8911     1.0000     0.1089     0.9819     0.9819     0.0000
  9 H      0.8949     1.0000     0.1051     0.9643     0.9643    -0.0000
 10 O      8.3215     8.0000    -0.3215     2.1715     2.1715    -0.0000
 11 H      0.7026     1.0000     0.2974     0.9522     0.9522     0.0000
 12 Cl    17.1320    17.0000    -0.1320     1.2488     1.2488     0.0000

  Mayer bond orders larger than 0.100000
B(  0-C ,  1-C ) :   1.4126 B(  0-C ,  5-C ) :   1.4005 B(  0-C ,  6-H ) :   0.9597 
B(  1-C ,  2-C ) :   1.3401 B(  1-C ,  7-H ) :   0.9536 B(  2-C ,  3-C ) :   1.2397 
B(  2-C , 12-Cl) :   0.8940 B(  3-C ,  4-C ) :   1.3836 B(  3-C , 10-O ) :   1.2463 
B(  3-C , 12-Cl) :   0.1009 B(  4-C ,  5-C ) :   1.4377 B(  4-C ,  8-H ) :   0.9596 
B(  5-C ,  9-H ) :   0.9636 B( 10-O , 11-H ) :   0.8473 

-------
TIMINGS
-------

Total SCF time: 0 days 0 hours 0 min 3 sec 

Total time                  ....       3.621 sec
Sum of individual times     ....       3.352 sec  ( 92.6%)

SCF preparation             ....       0.109 sec  (  3.0%)
Fock matrix formation       ....       2.038 sec  ( 56.3%)
  Startup                   ....       0.050 sec  (  2.5% of F)
  Split-RI-J                ....       0.508 sec  ( 24.9% of F)
  XC integration            ....       1.135 sec  ( 55.7% of F)
    Basis function eval.    ....       0.189 sec  ( 16.7% of XC)
    Density eval.           ....       0.169 sec  ( 14.9% of XC)
    XC-Functional eval.     ....       0.010 sec  (  0.9% of XC)
    XC-Potential eval.      ....       0.230 sec  ( 20.3% of XC)
Diagonalization             ....       0.000 sec  (  0.0%)
Density matrix formation    ....       0.265 sec  (  7.3%)
Total Energy calculation    ....       0.166 sec  (  4.6%)
Population analysis         ....       0.075 sec  (  2.1%)
Orbital Transformation      ....       0.058 sec  (  1.6%)
Orbital Orthonormalization  ....       0.000 sec  (  0.0%)
DIIS solution               ....       0.360 sec  (  9.9%)
SOSCF solution              ....       0.273 sec  (  7.5%)
Finished LeanSCF after   3.7 sec

Maximum memory used throughout the entire LEANSCF-calculation: 13.7 MB


           ************************************************************
           *        Program running with 20 parallel MPI-processes    *
           *              working on a common directory               *
           ************************************************************

------------------------------------------------------------------------------
                         ORCA PROPERTY INTEGRAL CALCULATIONS
------------------------------------------------------------------------------

GBWName                                   ... PBE_excited.gbw
Number of atoms                           ...     13
Number of basis functions                 ...    284
Max core memory                           ...   4096 MB

Dipole integrals                          ... YES
Quadrupole integrals                      ...  NO
Linear momentum integrals                 ... YES
Angular momentum integrals                ... YES
Higher moments length integrals           ...  NO
Higher moments velocity integrals         ...  NO
Kinetic energy integrals                  ...  NO
GIAO right hand sides                     ...  NO
GIAO dipole derivative integrals          ...  NO
SOC integrals                             ...  NO
EPR diamagnetic integrals (GIAO)          ...  NO
EPR gauge integrals                       ...  NO
Field gradient integrals                  ...  NO (   0 nuclei)
Spin-dipole/Fermi contact integrals       ...  NO (   0 nuclei)
Contact density integrals                 ...  NO (   0 nuclei)
Nucleus-orbit integrals                   ...  NO (   0 nuclei)
Geometric perturbations                   ...  NO (  13 nuclei)

Choice of electric origin   ... Center of mass
Position of electric origin ... (  0.1779,  0.6465,  1.2169) 
Choice of magnetic origin   ... GIAO
Position of magnetic origin ... (  0.0000,  0.0000,  0.0000) 

Calculating integrals                     ... Electric Dipole (Length)     done (  0.0 sec)
Calculating integrals                     ... Linear Momentum              done (  0.0 sec)
Calculating integrals                     ... Angular Momentum  (ElOri)    done (  0.0 sec)

Property integrals calculated in   0.1 sec

Maximum memory used throughout the entire PROPINT-calculation: 14.6 MB


           ************************************************************
           *        Program running with 20 parallel MPI-processes    *
           *              working on a common directory               *
           ************************************************************
------------------------------------------------------------------------------
                        ORCA TD-DFT/TDA CALCULATION
------------------------------------------------------------------------------

Input orbitals are from        ... PBE_excited.gbw
CI-vector output               ... PBE_excited.cis
Solver                         ... FN-2001
Tamm-Dancoff approximation     ... operative
CIS-Integral strategy          ... AO-integrals
Integral handling              ... AO integral Direct
Max. core memory used          ... 4096 MB
Reference state                ... RHF
Generation of triplets         ... off
Follow IRoot                   ... off
Number of operators            ... 1
Orbital ranges used for CIS calculation:
 Operator 0:  Orbitals  12... 32  to  33...283
XAS localization array:
 Operator 0:  Orbitals  -1... -1

-------------------
XC-INTEGRATION GRID
-------------------

General Integration Accuracy     IntAcc      ... 3.467
Radial Grid Type                 RadialGrid  ... OptM3 with GC (2021)
Angular Grid (max. ang.)         AngularGrid ... 1 (Lebedev-50)
Angular grid pruning method      GridPruning ... 4 (adaptive)
Weight generation scheme         WeightScheme... mBecke (2022)
Basis function cutoff            BFCut       ... 1.0000e-11
Integration weight cutoff        WCut        ... 1.0000e-14
Partially contracted basis set               ... off
Rotationally invariant grid construction     ... off
Angular grids for H and He will be reduced by one unit

Total number of grid points                  ...    10546
Total number of batches                      ...      170
Average number of points per batch           ...       62
Average number of grid points per atom       ...      811

---------------
TD-DFT XC SETUP
---------------

DFT calculation                         ... on
Name of the grid file                   ... PBE_excited.grid_cis.tmp
RI-approximation                        ... on
Aux-basis dimension                     ... 0
Exchange functional (TD-DFT)            ... PBE
   PBE kappa parameter  XKappa (TD-DFT) ...  0.804000
   PBE mue parameter   XMuePBE (TD-DFT) ...  0.219520
Correlation functional (TD-DFT)         ... PBE
   PBE beta parameter CBetaPBE (TD-DFT) ...  0.066725
 LDA part of GGA corr.  LDAOpt (TD-DFT) ... PW91-LDA

Building densities             ... done
Calculating rho(r) on the grid ... done
Building xc-kernel on the grid ... done
                    *** TD-DFT CALCULATION INITIALIZED ***

------------------------
DAVIDSON-DIAGONALIZATION
------------------------

Dimension of the eigenvalue problem            ...   5271
Number of roots to be determined               ...      5
Maximum size of the expansion space            ...     50
Maximum number of iterations                   ...    100
Convergence tolerance for the residual         ...    2.500e-07
Convergence tolerance for the energies         ...    2.500e-07
Orthogonality tolerance                        ...    1.000e-14
Level Shift                                    ...    0.000e+00
Constructing the preconditioner                ... o.k.
Building the initial guess                     ... o.k.
Number of trial vectors determined             ...     50


                       ****Iteration    0****
   Time for iteration     :  TOTAL=0.5 TRAFO=0.2 RIJ=0.2 XC=0.2
   Size of expansion space: 15
   Lowest Energy          :     0.179534485811
   Maximum Energy change  :     0.240550696991 (vector 4)
   Maximum residual norm  :     0.005198630753

                       ****Iteration    1****
   Time for iteration     :  TOTAL=0.2 TRAFO=0.1 RIJ=0.1 XC=0.1
   Size of expansion space: 20
   Lowest Energy          :     0.174467771478
   Maximum Energy change  :     0.006565931723 (vector 4)
   Maximum residual norm  :     0.023310500516

                       ****Iteration    2****
   Time for iteration     :  TOTAL=0.2 TRAFO=0.1 RIJ=0.1 XC=0.1
   Size of expansion space: 25
   Lowest Energy          :     0.173962939413
   Maximum Energy change  :     0.014807566809 (vector 3)
   Maximum residual norm  :     0.001235408151

                       ****Iteration    3****
   Time for iteration     :  TOTAL=0.2 TRAFO=0.1 RIJ=0.1 XC=0.1
   Size of expansion space: 30
   Lowest Energy          :     0.173920163028
   Maximum Energy change  :     0.001519600608 (vector 2)
   Maximum residual norm  :     0.000052409155

                       ****Iteration    4****
   Time for iteration     :  TOTAL=0.6 TRAFO=0.1 RIJ=0.1 XC=0.4
   Size of expansion space: 35
   Lowest Energy          :     0.173917851946
   Maximum Energy change  :     0.000062153471 (vector 2)
   Maximum residual norm  :     0.000002325506

                       ****Iteration    5****
   Time for iteration     :  TOTAL=0.6 TRAFO=0.3 RIJ=0.2 XC=0.1
   Size of expansion space: 40
   Lowest Energy          :     0.173917812317
   Maximum Energy change  :     0.000002734817 (vector 2)
   Maximum residual norm  :     0.000000080613

      *** CONVERGENCE OF RESIDUAL NORM REACHED ***

Storing the converged CI vectors               ... PBE_excited.cis1

                 *** DAVIDSON DONE ***

Total time for solving the CIS problem:     4.734sec

------------------------------------
TD-DFT/TDA EXCITED STATES (SINGLETS)
------------------------------------

the weight of the individual excitations are printed if larger than 1.0e-02

STATE  1:  E=   0.173918 au      4.733 eV    38170.5 cm**-1 <S**2> =   0.000000 Mult 1
    31a ->  34a  :     0.246545 (c=  0.49653281)
    32a ->  33a  :     0.735437 (c= -0.85757626)

STATE  2:  E=   0.190633 au      5.187 eV    41839.0 cm**-1 <S**2> =   0.000000 Mult 1
    31a ->  35a  :     0.015663 (c= -0.12515137)
    32a ->  35a  :     0.981511 (c= -0.99071222)

STATE  3:  E=   0.209879 au      5.711 eV    46063.1 cm**-1 <S**2> =   0.000000 Mult 1
    29a ->  34a  :     0.012758 (c= -0.11295190)
    31a ->  33a  :     0.354326 (c=  0.59525312)
    32a ->  33a  :     0.014157 (c= -0.11898354)
    32a ->  34a  :     0.556819 (c=  0.74620316)

STATE  4:  E=   0.216195 au      5.883 eV    47449.3 cm**-1 <S**2> =   0.000000 Mult 1
    31a ->  35a  :     0.977629 (c=  0.98875100)
    32a ->  35a  :     0.014743 (c= -0.12142064)

STATE  5:  E=   0.230997 au      6.286 eV    50698.1 cm**-1 <S**2> =   0.000000 Mult 1
    32a ->  36a  :     0.996959 (c= -0.99847857)

Storing amplitudes in GBW file ... 
... GBW file created

-----------------------------
TD-DFT/TDA-EXCITATION SPECTRA
-----------------------------

Center of mass = (  0.1779,  0.6465,  1.2169)
Generating CIS transition densities           ... done

----------------------------------------------------------------------------------------------------
                     ABSORPTION SPECTRUM VIA TRANSITION ELECTRIC DIPOLE MOMENTS    
----------------------------------------------------------------------------------------------------
     Transition      Energy     Energy  Wavelength fosc(D2)      D2        DX        DY        DZ   
                      (eV)      (cm-1)    (nm)                 (au**2)    (au)      (au)      (au)  
----------------------------------------------------------------------------------------------------
  0-1A  ->  1-1A    4.732544   38170.5   262.0   0.039296495   0.33892   0.02232   0.19373   0.54854
  0-1A  ->  2-1A    5.187380   41839.0   239.0   0.000330810   0.00260   0.05093  -0.00284  -0.00112
  0-1A  ->  3-1A    5.711095   46063.1   217.1   0.030503763   0.21801   0.00319  -0.15633   0.43995
  0-1A  ->  4-1A    5.882964   47449.3   210.8   0.000034233   0.00024   0.01541  -0.00018  -0.00012
  0-1A  ->  5-1A    6.285759   50698.1   197.2   0.000614863   0.00399   0.06310  -0.00288  -0.00174

----------------------------------------------------------------------------------------------------
                     ABSORPTION SPECTRUM VIA TRANSITION VELOCITY DIPOLE MOMENTS    
----------------------------------------------------------------------------------------------------
     Transition      Energy     Energy  Wavelength fosc(P2)      P2        PX        PY        PZ   
                      (eV)      (cm-1)    (nm)                 (au**2)    (au)      (au)      (au)  
----------------------------------------------------------------------------------------------------
  0-1A  ->  1-1A    4.732544   38170.5   262.0   0.000917631   0.00024   0.00019  -0.00357   0.01505
  0-1A  ->  2-1A    5.187380   41839.0   239.0   0.004393620   0.00126   0.03539  -0.00172  -0.00084
  0-1A  ->  3-1A    5.711095   46063.1   217.1   0.001136672   0.00036  -0.00107  -0.01601  -0.01002
  0-1A  ->  4-1A    5.882964   47449.3   210.8   0.003967519   0.00129   0.03582  -0.00171  -0.00083
  0-1A  ->  5-1A    6.285759   50698.1   197.2   0.007718550   0.00267  -0.05164   0.00249   0.00124

------------------------------------------------------------------------------------------
                     CD SPECTRUM VIA TRANSITION ELECTRIC DIPOLE MOMENTS    
------------------------------------------------------------------------------------------
     Transition      Energy     Energy  Wavelength    R        MX        MY        MZ   
                      (eV)      (cm-1)    (nm)   (1e40*cgs)   (au)      (au)      (au)  
------------------------------------------------------------------------------------------
  0-1A  ->  1-1A    4.732544   38170.5   262.0    0.03869   0.15178  -0.00738  -0.00372
  0-1A  ->  2-1A    5.187380   41839.0   239.0    0.00796  -0.00095   0.02541  -0.09239
  0-1A  ->  3-1A    5.711095   46063.1   217.1   -0.00346   0.13387  -0.00650  -0.00326
  0-1A  ->  4-1A    5.882964   47449.3   210.8   -0.01875   0.00345   0.07041   0.00583
  0-1A  ->  5-1A    6.285759   50698.1   197.2    0.03014   0.00251  -0.06611   0.23713

------------------------------------------------------------------------------------------
                     CD SPECTRUM VIA TRANSITION VELOCITY DIPOLE MOMENTS    
------------------------------------------------------------------------------------------
     Transition      Energy     Energy  Wavelength    R        MX        MY        MZ   
                      (eV)      (cm-1)    (nm)   (1e40*cgs)   (au)      (au)      (au)  
------------------------------------------------------------------------------------------
  0-1A  ->  1-1A    4.732544   38170.5   262.0   -0.00083   0.15178  -0.00738  -0.00372
  0-1A  ->  2-1A    5.187380   41839.0   239.0    0.00068  -0.00095   0.02541  -0.09239
  0-1A  ->  3-1A    5.711095   46063.1   217.1   -0.01575   0.13387  -0.00650  -0.00326
  0-1A  ->  4-1A    5.882964   47449.3   210.8   -0.00394   0.00345   0.07041   0.00583
  0-1A  ->  5-1A    6.285759   50698.1   197.2    0.00035   0.00251  -0.06611   0.23713

Total run time:        5.049 sec

           *** ORCA-CIS/TD-DFT FINISHED WITHOUT ERROR ***
-----------------------
CIS/TD-DFT TOTAL ENERGY
-----------------------

    E(SCF)  =   -766.644370326 Eh
    DE(CIS) =      0.173917812 Eh (Root  1)
    ----------------------------- ---------
    E(tot)  =   -766.470452513 Eh


Maximum memory used throughout the entire CIS-calculation: 35.4 MB
=> NOW LEAVING ORCA_CIS

-------------------------   --------------------
FINAL SINGLE POINT ENERGY      -766.470452513422
-------------------------   --------------------



           ************************************************************
           *        Program running with 20 parallel MPI-processes    *
           *              working on a common directory               *
           ************************************************************

------------------------------------------------------------------------------
                              ORCA PROPERTY CALCULATIONS
------------------------------------------------------------------------------

GBWName                                 ... PBE_excited.gbw
Number of atoms                         ...     13
Number of basis functions               ...    284
Max core memory                         ...   4096 MB

Electric properties:
Dipole moment                           ... YES
Quadrupole moment                       ...  NO
Static polarizability (Dipole/Dipole)   ...  NO
Static polarizability (Dipole/Quad.)    ...  NO
Static polarizability (Quad./Quad.)     ...  NO
Static polarizability (Velocity)        ...  NO
Static hyperpolarizability              ...  NO

Atomic electric properties:
Dipole moment                           ...  NO
Quadrupole moment                       ...  NO
Static polarizability                   ...  NO

Choice of electric origin               ... Center of mass
Position of electric origin             ...     0.177854     0.646497     1.216867

General magnetic properties:
Magnetizability                         ...  NO

EPR properties:
g-Tensor (aka g-matrix)                 ...  NO
Zero-Field splitting spin-orbit         ...  NO
Zero-field splitting spin-spin          ...  NO
Hyperfine couplings                     ...  NO (   0 nuclei)
Quadrupole couplings                    ...  NO (   0 nuclei)
Contact density                         ...  NO (   0 nuclei)

NMR properties:
Chemical shifts                         ...  NO (   0 nuclei)
Spin-rotation constants                 ...  NO (   0 nuclei)
Spin-spin couplings                     ...  NO (   0 nuclei,    0 pairs)

Choice of magnetic origin               ... GIAO
Position of magnetic origin             ...     0.000000     0.000000     0.000000

Properties with geometric perturbations:
SCF Hessian                             ...  NO
IR spectrum                             ...  NO
VCD spectrum                            ...  NO
X-ray spectroscopy properties:
SCF XES/XAS/RIXS spectra                ...  NO

SCF SOC stabilization energy            ...  NO
Diagonal Born-Oppenheimer correction    ...  NO

-------------
DIPOLE MOMENT
-------------

Method             : SCF
Type of density    : Electron Density
Multiplicity       :   1
Irrep              :   0
Energy             :  -766.6443703257393736 Eh
Basis              : AO
                                X                 Y                 Z
Electronic contribution:      0.420456662       5.260620634       7.053526294
Nuclear contribution   :     -0.433433103      -5.553772295      -7.017574888
                        -----------------------------------------
Total Dipole Moment    :     -0.012976441      -0.293151662       0.035951406
                        -----------------------------------------
Magnitude (a.u.)       :      0.295632861
Magnitude (Debye)      :      0.751439014



--------------------
Rotational spectrum 
--------------------
 
Rotational constants in cm-1:             0.099443             0.050921             0.033677 
Rotational constants in MHz :          2981.236606          1526.584812          1009.603131 

Dipole components along the rotational axes: 
x,y,z [a.u.] :    -0.154702    -0.251925    -0.000279 
x,y,z [Debye]:    -0.393221    -0.640342    -0.000709 

 

Dipole moment calculation done in   0.0 sec 

Maximum memory used throughout the entire PROP-calculation: 11.9 MB

--------------------------------
SUGGESTED CITATIONS FOR THIS RUN
--------------------------------

Below you find a list of papers that are relevant to this ORCA run
We neither can nor want to force you to cite these papers, but we appreciate if you do
You receive ORCA, which is the product of decades of hard work by many enthusiastic individuals, for free
The only thing we kindly ask in return is that you cite our papers,
We deeply appreciate it, if you show your appreciation for ORCA by not just citing the generic ORCA reference.

Please note that relegating all ORCA citations to the supporting information does *not* help us.
SI sections are not indexed - citations you put there will not count into any citation statistics
But we need these citations in order to attract the funding resources that allow us to do what we are doing

Therefore, if you are a happy ORCA user, please consider citing a few of the papers listed below in the main body of your paper

In addition to the list printed below, the program has created the file PBE_excited.bibtex that contains the list in bibtex format
You can import this file easily into all common literature databanks and citation aid programs


List of essential papers. We consider these as the minimum necessary citations

  1. Neese, F.
     Software update: the ORCA program system, version 6.0
     WIRES Comput. Molec. Sci. 2025 15(1), e70019
     doi.org/10.1002/wcms.7019

List of papers to cite with high priority. The work reported in these papers was absolutely
necessary for this run to complete.
Our perspective: the developers of density functionals and basis sets usually get cited in chemistry papers
Good! But without the algorithms to do something with them, the functionals or basis sets would not do anything.
Hence, in our opinion, the algorithm design and method developments papers are equally worthy of getting cited

  1. Neese, F.; Olbrich, G.
     Efficient use of the resolution of the identity approximation in time-dependent density functional calculations with hybrid density functionals
     Chem. Phys. Lett. 2002 362 , 170-178
     doi.org/10.1016/s0009-2614(02)01053-9
  2. Neese, F.
     An improvement of the resolution of the identity approximation for the formation of the Coulomb matrix
     J. Comp. Chem. 2003 24(14), 1740-1747
     doi.org/10.1002/jcc.10318
  3. Neese, F.
     The SHARK Integral Generation and Digestion System
     J. Comp. Chem. 2022 44(3), 381
     doi.org/10.1002/jcc.26942

List of suggested additional citations. These are papers that are important in the 'surrounding' of 
of this run, or papers that preceded the highly important papers. If you like your results we are grateful for a citation.

  1. Neese, F.
     The ORCA program system
     WIRES Comput. Molec. Sci. 2012 2(1), 73-78
     doi.org/10.1002/wcms.81
  2. Neese, F.
     Software update: the ORCA program system, version 4.0
     WIRES Comput. Molec. Sci. 2018 8(1), 1-6
     doi.org/10.1002/wcms.1327
  3. Neese, F.; Wennmohs, F.; Becker, U.; Riplinger, C.
     The ORCA quantum chemistry program package
     J. Chem. Phys. 2020 152(22), 224108
     doi.org/10.1063/5.0004608
  4. Neese, F.
     Software update: The ORCA program system—Version 5.0
     WIRES Comput. Molec. Sci. 2022 12(1), e1606
     doi.org/10.1002/wcms.1606

List of optional additional citations

  1. Neese, F.
     Approximate second-order SCF convergence for spin unrestricted wavefunctions
     Chem. Phys. Lett. 2000 325(1-3), 93-98
     doi.org/10.1016/s0009-2614(00)00662-x

Timings for individual modules:

Sum of individual times          ...       10.093 sec (=   0.168 min)
Startup calculation              ...        0.457 sec (=   0.008 min)   4.5 %
SCF iterations                   ...        4.113 sec (=   0.069 min)  40.8 %
Property integrals               ...        0.206 sec (=   0.003 min)   2.0 %
Property calculations            ...        0.148 sec (=   0.002 min)   1.5 %
CIS module                       ...        5.169 sec (=   0.086 min)  51.2 %
                             ****ORCA TERMINATED NORMALLY****
TOTAL RUN TIME: 0 days 0 hours 0 minutes 10 seconds 322 msec
