 Entering Link 1 = C:\G16W\l1.exe PID=      2404.
  
 Copyright (c) 1988-2017, Gaussian, Inc.  All Rights Reserved.
  
 This is part of the Gaussian(R) 16 program.  It is based on
 the Gaussian(R) 09 system (copyright 2009, Gaussian, Inc.),
 the Gaussian(R) 03 system (copyright 2003, Gaussian, Inc.),
 the Gaussian(R) 98 system (copyright 1998, Gaussian, Inc.),
 the Gaussian(R) 94 system (copyright 1995, Gaussian, Inc.),
 the Gaussian 92(TM) system (copyright 1992, Gaussian, Inc.),
 the Gaussian 90(TM) system (copyright 1990, Gaussian, Inc.),
 the Gaussian 88(TM) system (copyright 1988, Gaussian, Inc.),
 the Gaussian 86(TM) system (copyright 1986, Carnegie Mellon
 University), and the Gaussian 82(TM) system (copyright 1983,
 Carnegie Mellon University). Gaussian is a federally registered
 trademark of Gaussian, Inc.
  
 This software contains proprietary and confidential information,
 including trade secrets, belonging to Gaussian, Inc.
  
 This software is provided under written license and may be
 used, copied, transmitted, or stored only in accord with that
 written license.
  
 The following legend is applicable only to US Government
 contracts under FAR:
  
                    RESTRICTED RIGHTS LEGEND
  
 Use, reproduction and disclosure by the US Government is
 subject to restrictions as set forth in subparagraphs (a)
 and (c) of the Commercial Computer Software - Restricted
 Rights clause in FAR 52.227-19.
  
 Gaussian, Inc.
 340 Quinnipiac St., Bldg. 40, Wallingford CT 06492
  
  
 ---------------------------------------------------------------
 Warning -- This program may not be used in any manner that
 competes with the business of Gaussian, Inc. or will provide
 assistance to any competitor of Gaussian, Inc.  The licensee
 of this program is prohibited from giving any competitor of
 Gaussian, Inc. access to this program.  By using this program,
 the user acknowledges that Gaussian, Inc. is engaged in the
 business of creating and licensing software in the field of
 computational chemistry and represents and warrants to the
 licensee that it is not a competitor of Gaussian, Inc. and that
 it will not use this program in any manner prohibited above.
 ---------------------------------------------------------------
  

 Cite this work as:
 Gaussian 16, Revision B.01,
 M. J. Frisch, G. W. Trucks, H. B. Schlegel, G. E. Scuseria, 
 M. A. Robb, J. R. Cheeseman, G. Scalmani, V. Barone, 
 G. A. Petersson, H. Nakatsuji, X. Li, M. Caricato, A. V. Marenich, 
 J. Bloino, B. G. Janesko, R. Gomperts, B. Mennucci, H. P. Hratchian, 
 J. V. Ortiz, A. F. Izmaylov, J. L. Sonnenberg, D. Williams-Young, 
 F. Ding, F. Lipparini, F. Egidi, J. Goings, B. Peng, A. Petrone, 
 T. Henderson, D. Ranasinghe, V. G. Zakrzewski, J. Gao, N. Rega, 
 G. Zheng, W. Liang, M. Hada, M. Ehara, K. Toyota, R. Fukuda, 
 J. Hasegawa, M. Ishida, T. Nakajima, Y. Honda, O. Kitao, H. Nakai, 
 T. Vreven, K. Throssell, J. A. Montgomery, Jr., J. E. Peralta, 
 F. Ogliaro, M. J. Bearpark, J. J. Heyd, E. N. Brothers, K. N. Kudin, 
 V. N. Staroverov, T. A. Keith, R. Kobayashi, J. Normand, 
 K. Raghavachari, A. P. Rendell, J. C. Burant, S. S. Iyengar, 
 J. Tomasi, M. Cossi, J. M. Millam, M. Klene, C. Adamo, R. Cammi, 
 J. W. Ochterski, R. L. Martin, K. Morokuma, O. Farkas, 
 J. B. Foresman, and D. J. Fox, Gaussian, Inc., Wallingford CT, 2016.
 
 ******************************************
 Gaussian 16:  EM64W-G16RevB.01 16-Dec-2017
                07-Sep-2025 
 ******************************************
 %chk=C:\G16W\Scratch\CH2FCl-ccpvdz.chk
 -----------------------------------------------------
 # B3LYP/cc-pVDZ Opt Freq SCF=Tight Integral=UltraFine
 -----------------------------------------------------
 1/18=20,19=15,26=4,38=1/1,3;
 2/9=110,12=2,17=6,18=5,40=1/2;
 3/5=16,11=2,25=1,30=1,71=1,74=-5,75=-5/1,2,3;
 4//1;
 5/5=2,32=2,38=5/2;
 6/7=2,8=2,9=2,10=2,28=1/1;
 7//1,2,3,16;
 1/18=20,19=15,26=4/3(2);
 2/9=110/2;
 99//99;
 2/9=110/2;
 3/5=16,11=2,25=1,30=1,71=1,74=-5,75=-5/1,2,3;
 4/5=5,16=3,69=1/1;
 5/5=2,32=2,38=5/2;
 7//1,2,3,16;
 1/18=20,19=15,26=4/3(-5);
 2/9=110/2;
 6/7=2,8=2,9=2,10=2,19=2,28=1/1;
 99/9=1/99;
 -------------
 CH2FCl-ccpvdz
 -------------
 Symbolic Z-matrix:
 Charge =  0 Multiplicity = 1
 C                    -4.57845   3.12646   0. 
 H                    -4.2218    2.11765   0. 
 H                    -4.22178   3.63086  -0.87365 
 F                    -4.12845   3.76285   1.10227 
 Cl                   -6.33845   3.12649   0. 
 

 GradGradGradGradGradGradGradGradGradGradGradGradGradGradGradGradGradGrad
 Berny optimization.
 Initialization pass.
                           ----------------------------
                           !    Initial Parameters    !
                           ! (Angstroms and Degrees)  !
 --------------------------                            --------------------------
 ! Name  Definition              Value          Derivative Info.                !
 --------------------------------------------------------------------------------
 ! R1    R(1,2)                  1.07           estimate D2E/DX2                !
 ! R2    R(1,3)                  1.07           estimate D2E/DX2                !
 ! R3    R(1,4)                  1.35           estimate D2E/DX2                !
 ! R4    R(1,5)                  1.76           estimate D2E/DX2                !
 ! A1    A(2,1,3)              109.4712         estimate D2E/DX2                !
 ! A2    A(2,1,4)              109.4712         estimate D2E/DX2                !
 ! A3    A(2,1,5)              109.4712         estimate D2E/DX2                !
 ! A4    A(3,1,4)              109.4713         estimate D2E/DX2                !
 ! A5    A(3,1,5)              109.4712         estimate D2E/DX2                !
 ! A6    A(4,1,5)              109.4712         estimate D2E/DX2                !
 ! D1    D(2,1,4,3)            120.0            estimate D2E/DX2                !
 ! D2    D(2,1,5,3)           -120.0            estimate D2E/DX2                !
 ! D3    D(2,1,5,4)            120.0            estimate D2E/DX2                !
 ! D4    D(3,1,5,4)           -120.0            estimate D2E/DX2                !
 --------------------------------------------------------------------------------
 Trust Radius=3.00D-01 FncErr=1.00D-07 GrdErr=1.00D-06 EigMax=2.50D+02 EigMin=1.00D-04
 Number of steps in this run=     24 maximum allowed number of steps=    100.
 GradGradGradGradGradGradGradGradGradGradGradGradGradGradGradGradGradGrad

                          Input orientation:                          
 ---------------------------------------------------------------------
 Center     Atomic      Atomic             Coordinates (Angstroms)
 Number     Number       Type             X           Y           Z
 ---------------------------------------------------------------------
      1          6           0       -4.578454    3.126464    0.000000
      2          1           0       -4.221800    2.117654    0.000000
      3          1           0       -4.221782    3.630862   -0.873652
      4          9           0       -4.128447    3.762854    1.102271
      5         17           0       -6.338454    3.126485    0.000000
 ---------------------------------------------------------------------
                    Distance matrix (angstroms):
                    1          2          3          4          5
     1  C    0.000000
     2  H    1.070000   0.000000
     3  H    1.070000   1.747302   0.000000
     4  F    1.350000   1.982523   1.982524   0.000000
     5  Cl   1.760000   2.344774   2.344774   2.550314   0.000000
 Stoichiometry    CH2ClF
 Framework group  CS[SG(CClF),X(H2)]
 Deg. of freedom     6
 Full point group                 CS      NOp   2
 Largest Abelian subgroup         CS      NOp   2
 Largest concise Abelian subgroup CS      NOp   2
                         Standard orientation:                         
 ---------------------------------------------------------------------
 Center     Atomic      Atomic             Coordinates (Angstroms)
 Number     Number       Type             X           Y           Z
 ---------------------------------------------------------------------
      1          6           0       -0.507574   -0.619857    0.000000
      2          1           0       -1.093406   -0.815903    0.873651
      3          1           0       -1.093406   -0.815903   -0.873651
      4          9           0        0.581362   -1.417803    0.000000
      5         17           0        0.000000    1.065363    0.000000
 ---------------------------------------------------------------------
 Rotational constants (GHZ):          42.2911673           5.8258423           5.2852396
 Standard basis: CC-pVDZ (5D, 7F)
 There are    41 symmetry adapted cartesian basis functions of A'  symmetry.
 There are    18 symmetry adapted cartesian basis functions of A"  symmetry.
 There are    38 symmetry adapted basis functions of A'  symmetry.
 There are    18 symmetry adapted basis functions of A"  symmetry.
    56 basis functions,   151 primitive gaussians,    59 cartesian basis functions
    17 alpha electrons       17 beta electrons
       nuclear repulsion energy       102.2974142479 Hartrees.
 NAtoms=    5 NActive=    5 NUniq=    4 SFac= 1.56D+00 NAtFMM=   60 NAOKFM=F Big=F
 Integral buffers will be    131072 words long.
 Raffenetti 2 integral format.
 Two-electron integral symmetry is turned on.
 One-electron integrals computed using PRISM.
 NBasis=    56 RedAO= T EigKep=  1.44D-02  NBF=    38    18
 NBsUse=    56 1.00D-06 EigRej= -1.00D+00 NBFU=    38    18
 ExpMin= 1.22D-01 ExpMax= 1.28D+05 ExpMxC= 1.24D+03 IAcc=3 IRadAn=         5 AccDes= 0.00D+00
 Harris functional with IExCor=  402 and IRadAn=       5 diagonalized for initial guess.
 HarFok:  IExCor=  402 AccDes= 0.00D+00 IRadAn=         5 IDoV= 1 UseB2=F ITyADJ=14
 ICtDFT=  3500011 ScaDFX=  1.000000  1.000000  1.000000  1.000000
 FoFCou: FMM=F IPFlag=           0 FMFlag=      100000 FMFlg1=           0
         NFxFlg=           0 DoJE=T BraDBF=F KetDBF=T FulRan=T
         wScrn=  0.000000 ICntrl=       500 IOpCl=  0 I1Cent=   200000004 NGrid=           0
         NMat0=    1 NMatS0=      1 NMatT0=    0 NMatD0=    1 NMtDS0=    0 NMtDT0=    0
 Petite list used in FoFCou.
 Initial guess orbital symmetries:
       Occupied  (A') (A') (A') (A') (A') (A") (A') (A') (A') (A')
                 (A') (A") (A') (A") (A') (A') (A")
       Virtual   (A') (A') (A') (A") (A') (A") (A') (A') (A') (A")
                 (A') (A") (A') (A") (A') (A') (A") (A') (A') (A")
                 (A') (A") (A') (A') (A") (A') (A") (A') (A') (A")
                 (A') (A') (A") (A') (A") (A') (A') (A") (A')
 The electronic state of the initial guess is 1-A'.
 Keep R1 ints in memory in symmetry-blocked form, NReq=2160061.
 Requested convergence on RMS density matrix=1.00D-08 within 128 cycles.
 Requested convergence on MAX density matrix=1.00D-06.
 Requested convergence on             energy=1.00D-06.
 No special actions if energy rises.
 Integral accuracy reduced to 1.0D-05 until final iterations.
 Initial convergence to 1.0D-05 achieved.  Increase integral accuracy.
 SCF Done:  E(RB3LYP) =  -599.359725416     A.U. after   12 cycles
            NFock= 12  Conv=0.48D-08     -V/T= 2.0024

 **********************************************************************

            Population analysis using the SCF Density.

 **********************************************************************

 Orbital symmetries:
       Occupied  (A') (A') (A') (A') (A') (A') (A") (A') (A') (A')
                 (A') (A") (A') (A") (A') (A') (A")
       Virtual   (A') (A') (A") (A') (A') (A") (A') (A') (A") (A')
                 (A') (A") (A') (A") (A') (A') (A") (A') (A') (A")
                 (A') (A') (A") (A') (A") (A") (A') (A') (A') (A")
                 (A') (A') (A") (A') (A") (A') (A') (A") (A')
 The electronic state is 1-A'.
 Alpha  occ. eigenvalues -- -101.54280 -24.70508 -10.32042  -9.46259  -7.22502
 Alpha  occ. eigenvalues --   -7.21549  -7.21490  -1.23041  -0.86760  -0.68895
 Alpha  occ. eigenvalues --   -0.53021  -0.52988  -0.49099  -0.38039  -0.37660
 Alpha  occ. eigenvalues --   -0.32358  -0.30785
 Alpha virt. eigenvalues --    0.02923   0.07968   0.10773   0.11699   0.39696
 Alpha virt. eigenvalues --    0.42962   0.46400   0.49723   0.55350   0.56046
 Alpha virt. eigenvalues --    0.57478   0.59923   0.68363   0.71554   0.72079
 Alpha virt. eigenvalues --    0.73923   0.78080   0.93198   1.05787   1.07495
 Alpha virt. eigenvalues --    1.15736   1.24899   1.27471   1.34408   1.56293
 Alpha virt. eigenvalues --    1.65539   1.65542   1.67470   1.80987   1.82542
 Alpha virt. eigenvalues --    2.03266   2.29908   2.41164   2.45879   3.57891
 Alpha virt. eigenvalues --    3.58122   3.78807   3.83509   4.03049
          Condensed to atoms (all electrons):
               1          2          3          4          5
     1  C    4.356461   0.393875   0.393875   0.350184   0.294564
     2  H    0.393875   0.671503  -0.044286  -0.028573  -0.047200
     3  H    0.393875  -0.044286   0.671503  -0.028573  -0.047200
     4  F    0.350184  -0.028573  -0.028573   8.947068  -0.045800
     5  Cl   0.294564  -0.047200  -0.047200  -0.045800  16.971734
 Mulliken charges:
               1
     1  C    0.211041
     2  H    0.054681
     3  H    0.054681
     4  F   -0.194305
     5  Cl  -0.126098
 Sum of Mulliken charges =   0.00000
 Mulliken charges with hydrogens summed into heavy atoms:
               1
     1  C    0.320403
     4  F   -0.194305
     5  Cl  -0.126098
 Electronic spatial extent (au):  <R**2>=            229.5433
 Charge=              0.0000 electrons
 Dipole moment (field-independent basis, Debye):
    X=             -1.6720    Y=             -0.6614    Z=              0.0000  Tot=              1.7980
 Quadrupole moment (field-independent basis, Debye-Ang):
   XX=            -22.9480   YY=            -24.7994   ZZ=            -23.1009
   XY=              2.0279   XZ=              0.0000   YZ=              0.0000
 Traceless Quadrupole moment (field-independent basis, Debye-Ang):
   XX=              0.6681   YY=             -1.1833   ZZ=              0.5152
   XY=              2.0279   XZ=              0.0000   YZ=              0.0000
 Octapole moment (field-independent basis, Debye-Ang**2):
  XXX=              2.7348  YYY=             -3.2458  ZZZ=              0.0000  XYY=              0.4768
  XXY=             -3.1218  XXZ=              0.0000  XZZ=              0.3753  YZZ=             -3.6077
  YYZ=              0.0000  XYZ=              0.0000
 Hexadecapole moment (field-independent basis, Debye-Ang**3):
 XXXX=            -47.6037 YYYY=           -176.4269 ZZZZ=            -27.9402 XXXY=              3.9182
 XXXZ=              0.0000 YYYX=              6.9205 YYYZ=              0.0000 ZZZX=              0.0000
 ZZZY=              0.0000 XXYY=            -37.9797 XXZZ=            -11.8788 YYZZ=            -34.8984
 XXYZ=              0.0000 YYXZ=              0.0000 ZZXY=              1.8275
 N-N= 1.022974142479D+02 E-N=-1.628539670719D+03  KE= 5.978961099465D+02
 Symmetry A'   KE= 5.435435243255D+02
 Symmetry A"   KE= 5.435258562100D+01
 Calling FoFJK, ICntrl=      2127 FMM=F ISym2X=1 I1Cent= 0 IOpClX= 0 NMat=1 NMatS=1 NMatT=0.
 ***** Axes restored to original set *****
 -------------------------------------------------------------------
 Center     Atomic                   Forces (Hartrees/Bohr)
 Number     Number              X              Y              Z
 -------------------------------------------------------------------
      1        6           0.001558583    0.004542500    0.007867880
      2        1           0.003414934   -0.021933288    0.001829521
      3        1           0.003415359    0.012551005   -0.018079980
      4        9           0.007234221    0.006671528    0.011555588
      5       17          -0.015623096   -0.001831744   -0.003173009
 -------------------------------------------------------------------
 Cartesian Forces:  Max     0.021933288 RMS     0.010214377

 GradGradGradGradGradGradGradGradGradGradGradGradGradGradGradGradGradGrad
 Berny optimization.
 FormGI is forming the generalized inverse of G from B-inverse, IUseBI=4.
 Internal  Forces:  Max     0.021817250 RMS     0.010453228
 Search for a local minimum.
 Step number   1 out of a maximum of   24
 All quantities printed in internal units (Hartrees-Bohrs-Radians)
 Mixed Optimization -- RFO/linear search
 Second derivative matrix not updated -- first step.
 The second derivative matrix:
                          R1        R2        R3        R4        A1
           R1           0.37230
           R2           0.00000   0.37230
           R3           0.00000   0.00000   0.55021
           R4           0.00000   0.00000   0.00000   0.29539
           A1           0.00000   0.00000   0.00000   0.00000   0.16000
           A2           0.00000   0.00000   0.00000   0.00000   0.00000
           A3           0.00000   0.00000   0.00000   0.00000   0.00000
           A4           0.00000   0.00000   0.00000   0.00000   0.00000
           A5           0.00000   0.00000   0.00000   0.00000   0.00000
           A6           0.00000   0.00000   0.00000   0.00000   0.00000
           D1           0.00000   0.00000   0.00000   0.00000   0.00000
           D2           0.00000   0.00000   0.00000   0.00000   0.00000
           D3           0.00000   0.00000   0.00000   0.00000   0.00000
           D4           0.00000   0.00000   0.00000   0.00000   0.00000
                          A2        A3        A4        A5        A6
           A2           0.16000
           A3           0.00000   0.16000
           A4           0.00000   0.00000   0.16000
           A5           0.00000   0.00000   0.00000   0.16000
           A6           0.00000   0.00000   0.00000   0.00000   0.25000
           D1           0.00000   0.00000   0.00000   0.00000   0.00000
           D2           0.00000   0.00000   0.00000   0.00000   0.00000
           D3           0.00000   0.00000   0.00000   0.00000   0.00000
           D4           0.00000   0.00000   0.00000   0.00000   0.00000
                          D1        D2        D3        D4
           D1           0.02089
           D2           0.00000   0.00238
           D3           0.00000   0.00000   0.00238
           D4           0.00000   0.00000   0.00000   0.00238
 ITU=  0
     Eigenvalues ---    0.05673   0.05720   0.09376   0.16000   0.21992
     Eigenvalues ---    0.29539   0.37230   0.37230   0.55021
 RFO step:  Lambda=-4.40239139D-03 EMin= 5.67298782D-02
 Linear search not attempted -- first point.
 Iteration  1 RMS(Cart)=  0.03310050 RMS(Int)=  0.00064144
 Iteration  2 RMS(Cart)=  0.00063443 RMS(Int)=  0.00025481
 Iteration  3 RMS(Cart)=  0.00000037 RMS(Int)=  0.00025481
 ClnCor:  largest displacement from symmetrization is 5.46D-13 for atom     3.
 Variable       Old X    -DE/DX   Delta X   Delta X   Delta X     New X
                                 (Linear)    (Quad)   (Total)
    R1        2.02201   0.02182   0.00000   0.05792   0.05792   2.07992
    R2        2.02201   0.02182   0.00000   0.05792   0.05792   2.07992
    R3        2.55113   0.01499   0.00000   0.02703   0.02703   2.57816
    R4        3.32592   0.01562   0.00000   0.05211   0.05211   3.37803
    A1        1.91063   0.00340   0.00000   0.02624   0.02567   1.93630
    A2        1.91063  -0.00093   0.00000   0.00327   0.00352   1.91416
    A3        1.91063  -0.00426   0.00000  -0.03045  -0.03063   1.88000
    A4        1.91063  -0.00093   0.00000   0.00327   0.00352   1.91416
    A5        1.91063  -0.00426   0.00000  -0.03045  -0.03063   1.88000
    A6        1.91063   0.00697   0.00000   0.02810   0.02832   1.93895
    D1        2.09440   0.00303   0.00000   0.03615   0.03610   2.13050
    D2       -2.09440   0.00104   0.00000   0.00515   0.00467  -2.08972
    D3        2.09439   0.00052   0.00000   0.00257   0.00234   2.09673
    D4       -2.09439  -0.00052   0.00000  -0.00257  -0.00234  -2.09673
         Item               Value     Threshold  Converged?
 Maximum Force            0.021817     0.000450     NO 
 RMS     Force            0.010453     0.000300     NO 
 Maximum Displacement     0.059156     0.001800     NO 
 RMS     Displacement     0.033250     0.001200     NO 
 Predicted change in Energy=-2.232490D-03
 GradGradGradGradGradGradGradGradGradGradGradGradGradGradGradGradGradGrad

                          Input orientation:                          
 ---------------------------------------------------------------------
 Center     Atomic      Atomic             Coordinates (Angstroms)
 Number     Number       Type             X           Y           Z
 ---------------------------------------------------------------------
      1          6           0       -4.571713    3.131912    0.009438
      2          1           0       -4.227886    2.086349    0.011991
      3          1           0       -4.227867    3.656899   -0.894766
      4          9           0       -4.102439    3.772436    1.118868
      5         17           0       -6.359031    3.116722   -0.016912
 ---------------------------------------------------------------------
                    Distance matrix (angstroms):
                    1          2          3          4          5
     1  C    0.000000
     2  H    1.100648   0.000000
     3  H    1.100648   1.813515   0.000000
     4  F    1.364304   2.020842   2.020842   0.000000
     5  Cl   1.787577   2.367337   2.367337   2.610013   0.000000
 Stoichiometry    CH2ClF
 Framework group  CS[SG(CClF),X(H2)]
 Deg. of freedom     6
 Full point group                 CS      NOp   2
 Largest Abelian subgroup         CS      NOp   2
 Largest concise Abelian subgroup CS      NOp   2
                         Standard orientation:                         
 ---------------------------------------------------------------------
 Center     Atomic      Atomic             Coordinates (Angstroms)
 Number     Number       Type             X           Y           Z
 ---------------------------------------------------------------------
      1          6           0        0.000000   -0.804569    0.000000
      2          1           0       -0.359422   -1.314503    0.906757
      3          1           0       -0.359422   -1.314503   -0.906757
      4          9           0        1.363975   -0.774597    0.000000
      5         17           0       -0.679819    0.848694    0.000000
 ---------------------------------------------------------------------
 Rotational constants (GHZ):          42.1478921           5.5661900           5.0806942
 Standard basis: CC-pVDZ (5D, 7F)
 There are    41 symmetry adapted cartesian basis functions of A'  symmetry.
 There are    18 symmetry adapted cartesian basis functions of A"  symmetry.
 There are    38 symmetry adapted basis functions of A'  symmetry.
 There are    18 symmetry adapted basis functions of A"  symmetry.
    56 basis functions,   151 primitive gaussians,    59 cartesian basis functions
    17 alpha electrons       17 beta electrons
       nuclear repulsion energy       100.5356804343 Hartrees.
 NAtoms=    5 NActive=    5 NUniq=    4 SFac= 1.56D+00 NAtFMM=   60 NAOKFM=F Big=F
 Integral buffers will be    131072 words long.
 Raffenetti 2 integral format.
 Two-electron integral symmetry is turned on.
 One-electron integrals computed using PRISM.
 NBasis=    56 RedAO= T EigKep=  1.53D-02  NBF=    38    18
 NBsUse=    56 1.00D-06 EigRej= -1.00D+00 NBFU=    38    18
 Initial guess from the checkpoint file:  "C:\G16W\Scratch\CH2FCl-ccpvdz.chk"
 B after Tr=     0.000000    0.000000    0.000000
         Rot=    0.944286    0.000000    0.000000   -0.329127 Ang= -38.43 deg.
 Initial guess orbital symmetries:
       Occupied  (A') (A') (A') (A') (A') (A') (A") (A') (A') (A')
                 (A') (A") (A') (A") (A') (A') (A")
       Virtual   (A') (A') (A") (A') (A') (A") (A') (A') (A") (A')
                 (A') (A") (A') (A") (A') (A') (A") (A') (A') (A")
                 (A') (A') (A") (A') (A") (A") (A') (A') (A') (A")
                 (A') (A') (A") (A') (A") (A') (A') (A") (A')
 ExpMin= 1.22D-01 ExpMax= 1.28D+05 ExpMxC= 1.24D+03 IAcc=3 IRadAn=         5 AccDes= 0.00D+00
 Harris functional with IExCor=  402 and IRadAn=       5 diagonalized for initial guess.
 HarFok:  IExCor=  402 AccDes= 0.00D+00 IRadAn=         5 IDoV= 1 UseB2=F ITyADJ=14
 ICtDFT=  3500011 ScaDFX=  1.000000  1.000000  1.000000  1.000000
 FoFCou: FMM=F IPFlag=           0 FMFlag=      100000 FMFlg1=           0
         NFxFlg=           0 DoJE=T BraDBF=F KetDBF=T FulRan=T
         wScrn=  0.000000 ICntrl=       500 IOpCl=  0 I1Cent=   200000004 NGrid=           0
         NMat0=    1 NMatS0=      1 NMatT0=    0 NMatD0=    1 NMtDS0=    0 NMtDT0=    0
 Petite list used in FoFCou.
 Keep R1 ints in memory in symmetry-blocked form, NReq=2160061.
 Requested convergence on RMS density matrix=1.00D-08 within 128 cycles.
 Requested convergence on MAX density matrix=1.00D-06.
 Requested convergence on             energy=1.00D-06.
 No special actions if energy rises.
 Integral accuracy reduced to 1.0D-05 until final iterations.
 Initial convergence to 1.0D-05 achieved.  Increase integral accuracy.
 SCF Done:  E(RB3LYP) =  -599.361930953     A.U. after   11 cycles
            NFock= 11  Conv=0.47D-08     -V/T= 2.0027
 Calling FoFJK, ICntrl=      2127 FMM=F ISym2X=1 I1Cent= 0 IOpClX= 0 NMat=1 NMatS=1 NMatT=0.
 ***** Axes restored to original set *****
 -------------------------------------------------------------------
 Center     Atomic                   Forces (Hartrees/Bohr)
 Number     Number              X              Y              Z
 -------------------------------------------------------------------
      1        6           0.007720777   -0.001050154   -0.001818757
      2        1          -0.001239910    0.000521045    0.001279552
      3        1          -0.001239906    0.000847624    0.001091001
      4        9          -0.001312059   -0.000520039   -0.000900762
      5       17          -0.003928902    0.000201524    0.000348966
 -------------------------------------------------------------------
 Cartesian Forces:  Max     0.007720777 RMS     0.002440154

 GradGradGradGradGradGradGradGradGradGradGradGradGradGradGradGradGradGrad
 Berny optimization.
 Using GEDIIS/GDIIS optimizer.
 FormGI is forming the generalized inverse of G from B-inverse, IUseBI=4.
 Internal  Forces:  Max     0.003921501 RMS     0.001318890
 Search for a local minimum.
 Step number   2 out of a maximum of   24
 All quantities printed in internal units (Hartrees-Bohrs-Radians)
 Mixed Optimization -- RFO/linear search
 Update second derivatives using D2CorX and points    1    2
 DE= -2.21D-03 DEPred=-2.23D-03 R= 9.88D-01
 TightC=F SS=  1.41D+00  RLast= 1.22D-01 DXNew= 5.0454D-01 3.6562D-01
 Trust test= 9.88D-01 RLast= 1.22D-01 DXMaxT set to 3.66D-01
 The second derivative matrix:
                          R1        R2        R3        R4        A1
           R1           0.38536
           R2           0.01306   0.38536
           R3           0.01306   0.01306   0.56215
           R4          -0.01452  -0.01452  -0.00793   0.27273
           A1          -0.00711  -0.00711  -0.00446  -0.00771   0.15758
           A2          -0.00918  -0.00918  -0.00655  -0.00529  -0.00124
           A3           0.00281   0.00281   0.00122   0.00628   0.00226
           A4          -0.00918  -0.00918  -0.00655  -0.00529  -0.00124
           A5           0.00281   0.00281   0.00122   0.00628   0.00226
           A6           0.00745   0.00745   0.00657  -0.00314  -0.00198
           D1           0.00455   0.00455   0.00342   0.00160   0.00020
           D2           0.00997   0.00997   0.00722   0.00513   0.00110
           D3           0.00499   0.00499   0.00361   0.00257   0.00055
           D4          -0.00499  -0.00499  -0.00361  -0.00257  -0.00055
                          A2        A3        A4        A5        A6
           A2           0.16026
           A3           0.00178   0.15832
           A4           0.00026   0.00178   0.16026
           A5           0.00178  -0.00168   0.00178   0.15832
           A6          -0.00318   0.00036  -0.00318   0.00036   0.25357
           D1          -0.00054  -0.00063  -0.00054  -0.00063   0.00171
           D2          -0.00053  -0.00178  -0.00053  -0.00178   0.00354
           D3          -0.00027  -0.00089  -0.00027  -0.00089   0.00177
           D4           0.00027   0.00089   0.00027   0.00089  -0.00177
                          D1        D2        D3        D4
           D1           0.02133
           D2           0.00069   0.00321
           D3           0.00035   0.00042   0.00259
           D4          -0.00035  -0.00042  -0.00021   0.00259
 ITU=  1  0
 Use linear search instead of GDIIS.
     Eigenvalues ---    0.05674   0.05730   0.09217   0.16000   0.22461
     Eigenvalues ---    0.27005   0.37230   0.40043   0.56490
 RFO step:  Lambda=-1.38437305D-04 EMin= 5.67396710D-02
 Quartic linear search produced a step of  0.02947.
 Iteration  1 RMS(Cart)=  0.00559586 RMS(Int)=  0.00004307
 Iteration  2 RMS(Cart)=  0.00003700 RMS(Int)=  0.00002107
 Iteration  3 RMS(Cart)=  0.00000000 RMS(Int)=  0.00002107
 ClnCor:  largest displacement from symmetrization is 6.37D-12 for atom     3.
 Variable       Old X    -DE/DX   Delta X   Delta X   Delta X     New X
                                 (Linear)    (Quad)   (Total)
    R1        2.07992  -0.00088   0.00171  -0.00234  -0.00063   2.07929
    R2        2.07992  -0.00088   0.00171  -0.00234  -0.00063   2.07929
    R3        2.57816  -0.00143   0.00080  -0.00264  -0.00185   2.57632
    R4        3.37803   0.00392   0.00154   0.01377   0.01530   3.39333
    A1        1.93630   0.00089   0.00076   0.01698   0.01772   1.95403
    A2        1.91416   0.00027   0.00010  -0.00061  -0.00054   1.91362
    A3        1.88000  -0.00019  -0.00090  -0.00359  -0.00452   1.87549
    A4        1.91416   0.00027   0.00010  -0.00061  -0.00054   1.91362
    A5        1.88000  -0.00019  -0.00090  -0.00359  -0.00452   1.87549
    A6        1.93895  -0.00108   0.00083  -0.00856  -0.00776   1.93119
    D1        2.13050   0.00146   0.00106   0.02032   0.02139   2.15189
    D2       -2.08972  -0.00085   0.00014  -0.01618  -0.01602  -2.10575
    D3        2.09673  -0.00042   0.00007  -0.00809  -0.00801   2.08872
    D4       -2.09673   0.00042  -0.00007   0.00809   0.00801  -2.08872
         Item               Value     Threshold  Converged?
 Maximum Force            0.003922     0.000450     NO 
 RMS     Force            0.001319     0.000300     NO 
 Maximum Displacement     0.010672     0.001800     NO 
 RMS     Displacement     0.005589     0.001200     NO 
 Predicted change in Energy=-6.989707D-05
 GradGradGradGradGradGradGradGradGradGradGradGradGradGradGradGradGradGrad

                          Input orientation:                          
 ---------------------------------------------------------------------
 Center     Atomic      Atomic             Coordinates (Angstroms)
 Number     Number       Type             X           Y           Z
 ---------------------------------------------------------------------
      1          6           0       -4.566171    3.130168    0.006416
      2          1           0       -4.228607    2.082964    0.016558
      3          1           0       -4.228587    3.662547   -0.895414
      4          9           0       -4.103915    3.771447    1.117155
      5         17           0       -6.361657    3.117194   -0.016094
 ---------------------------------------------------------------------
                    Distance matrix (angstroms):
                    1          2          3          4          5
     1  C    0.000000
     2  H    1.100312   0.000000
     3  H    1.100312   1.823945   0.000000
     4  F    1.363327   2.019365   2.019365   0.000000
     5  Cl   1.795674   2.370781   2.370781   2.609540   0.000000
 Stoichiometry    CH2ClF
 Framework group  CS[SG(CClF),X(H2)]
 Deg. of freedom     6
 Full point group                 CS      NOp   2
 Largest Abelian subgroup         CS      NOp   2
 Largest concise Abelian subgroup CS      NOp   2
                         Standard orientation:                         
 ---------------------------------------------------------------------
 Center     Atomic      Atomic             Coordinates (Angstroms)
 Number     Number       Type             X           Y           Z
 ---------------------------------------------------------------------
      1          6           0        0.000000   -0.811522    0.000000
      2          1           0       -0.356069   -1.313726    0.911972
      3          1           0       -0.356069   -1.313726   -0.911972
      4          9           0        1.362803   -0.773706    0.000000
      5         17           0       -0.679593    0.850585    0.000000
 ---------------------------------------------------------------------
 Rotational constants (GHZ):          41.8351959           5.5607131           5.0735120
 Standard basis: CC-pVDZ (5D, 7F)
 There are    41 symmetry adapted cartesian basis functions of A'  symmetry.
 There are    18 symmetry adapted cartesian basis functions of A"  symmetry.
 There are    38 symmetry adapted basis functions of A'  symmetry.
 There are    18 symmetry adapted basis functions of A"  symmetry.
    56 basis functions,   151 primitive gaussians,    59 cartesian basis functions
    17 alpha electrons       17 beta electrons
       nuclear repulsion energy       100.4126325883 Hartrees.
 NAtoms=    5 NActive=    5 NUniq=    4 SFac= 1.56D+00 NAtFMM=   60 NAOKFM=F Big=F
 Integral buffers will be    131072 words long.
 Raffenetti 2 integral format.
 Two-electron integral symmetry is turned on.
 One-electron integrals computed using PRISM.
 NBasis=    56 RedAO= T EigKep=  1.54D-02  NBF=    38    18
 NBsUse=    56 1.00D-06 EigRej= -1.00D+00 NBFU=    38    18
 Initial guess from the checkpoint file:  "C:\G16W\Scratch\CH2FCl-ccpvdz.chk"
 B after Tr=     0.000000    0.000000    0.000000
         Rot=    1.000000    0.000000    0.000000    0.000141 Ang=   0.02 deg.
 Initial guess orbital symmetries:
       Occupied  (A') (A') (A') (A') (A') (A') (A") (A') (A') (A')
                 (A') (A") (A') (A") (A') (A') (A")
       Virtual   (A') (A') (A") (A') (A') (A") (A') (A') (A") (A')
                 (A') (A") (A') (A") (A') (A') (A") (A') (A') (A")
                 (A') (A') (A") (A') (A") (A") (A') (A') (A') (A")
                 (A') (A') (A") (A') (A") (A') (A') (A") (A')
 Keep R1 ints in memory in symmetry-blocked form, NReq=2160061.
 Requested convergence on RMS density matrix=1.00D-08 within 128 cycles.
 Requested convergence on MAX density matrix=1.00D-06.
 Requested convergence on             energy=1.00D-06.
 No special actions if energy rises.
 SCF Done:  E(RB3LYP) =  -599.362027299     A.U. after    9 cycles
            NFock=  9  Conv=0.26D-08     -V/T= 2.0027
 Calling FoFJK, ICntrl=      2127 FMM=F ISym2X=1 I1Cent= 0 IOpClX= 0 NMat=1 NMatS=1 NMatT=0.
 ***** Axes restored to original set *****
 -------------------------------------------------------------------
 Center     Atomic                   Forces (Hartrees/Bohr)
 Number     Number              X              Y              Z
 -------------------------------------------------------------------
      1        6           0.003809956   -0.000148452   -0.000257046
      2        1          -0.000778762    0.000748592    0.000257985
      3        1          -0.000778773   -0.000150861    0.000777284
      4        9          -0.000511318   -0.000403610   -0.000699085
      5       17          -0.001741103   -0.000045669   -0.000079139
 -------------------------------------------------------------------
 Cartesian Forces:  Max     0.003809956 RMS     0.001183880

 GradGradGradGradGradGradGradGradGradGradGradGradGradGradGradGradGradGrad
 Berny optimization.
 Using GEDIIS/GDIIS optimizer.
 FormGI is forming the generalized inverse of G from B-inverse, IUseBI=4.
 Internal  Forces:  Max     0.001742269 RMS     0.000675042
 Search for a local minimum.
 Step number   3 out of a maximum of   24
 All quantities printed in internal units (Hartrees-Bohrs-Radians)
 Mixed Optimization -- En-DIIS/RFO-DIIS
 Update second derivatives using D2CorX and points    1    2    3
 DE= -9.63D-05 DEPred=-6.99D-05 R= 1.38D+00
 TightC=F SS=  1.41D+00  RLast= 3.87D-02 DXNew= 6.1490D-01 1.1607D-01
 Trust test= 1.38D+00 RLast= 3.87D-02 DXMaxT set to 3.66D-01
 The second derivative matrix:
                          R1        R2        R3        R4        A1
           R1           0.38794
           R2           0.01564   0.38794
           R3           0.00966   0.00966   0.55470
           R4           0.01050   0.01050   0.01899   0.21525
           A1           0.00331   0.00331   0.01444  -0.06980   0.11143
           A2          -0.00899  -0.00899  -0.00805   0.00270   0.00274
           A3           0.00137   0.00137  -0.00351   0.02524   0.01408
           A4          -0.00899  -0.00899  -0.00805   0.00270   0.00274
           A5           0.00137   0.00137  -0.00351   0.02524   0.01408
           A6          -0.00258  -0.00258  -0.00625   0.03022   0.02861
           D1           0.01122   0.01122   0.00551   0.01141  -0.00303
           D2           0.00554   0.00554   0.00885  -0.01632  -0.00463
           D3           0.00277   0.00277   0.00442  -0.00816  -0.00231
           D4          -0.00277  -0.00277  -0.00442   0.00816   0.00231
                          A2        A3        A4        A5        A6
           A2           0.16019
           A3           0.00107   0.15566
           A4           0.00019   0.00107   0.16019
           A5           0.00107  -0.00434   0.00107   0.15566
           A6          -0.00662  -0.00843  -0.00662  -0.00843   0.23573
           D1           0.00118   0.00186   0.00118   0.00186  -0.00041
           D2          -0.00144  -0.00194  -0.00144  -0.00194   0.01151
           D3          -0.00072  -0.00097  -0.00072  -0.00097   0.00575
           D4           0.00072   0.00097   0.00072   0.00097  -0.00575
                          D1        D2        D3        D4
           D1           0.02880
           D2          -0.00720   0.00979
           D3          -0.00360   0.00371   0.00423
           D4           0.00360  -0.00371  -0.00185   0.00423
 ITU=  1  1  0
 Use linear search instead of GDIIS.
     Eigenvalues ---    0.04841   0.05768   0.08346   0.16000   0.21973
     Eigenvalues ---    0.23215   0.37230   0.40334   0.55727
 RFO step:  Lambda=-1.42945293D-05 EMin= 4.84112741D-02
 Quartic linear search produced a step of  0.59248.
 Iteration  1 RMS(Cart)=  0.00345695 RMS(Int)=  0.00002834
 Iteration  2 RMS(Cart)=  0.00001615 RMS(Int)=  0.00002286
 Iteration  3 RMS(Cart)=  0.00000000 RMS(Int)=  0.00002286
 ClnCor:  largest displacement from symmetrization is 2.07D-12 for atom     3.
 Variable       Old X    -DE/DX   Delta X   Delta X   Delta X     New X
                                 (Linear)    (Quad)   (Total)
    R1        2.07929  -0.00095  -0.00038  -0.00251  -0.00288   2.07640
    R2        2.07929  -0.00095  -0.00038  -0.00251  -0.00288   2.07640
    R3        2.57632  -0.00093  -0.00109  -0.00123  -0.00232   2.57399
    R4        3.39333   0.00174   0.00907   0.00301   0.01207   3.40541
    A1        1.95403   0.00032   0.01050  -0.00066   0.00983   1.96385
    A2        1.91362   0.00014  -0.00032   0.00222   0.00185   1.91546
    A3        1.87549  -0.00030  -0.00268  -0.00331  -0.00599   1.86949
    A4        1.91362   0.00014  -0.00032   0.00222   0.00185   1.91546
    A5        1.87549  -0.00030  -0.00268  -0.00331  -0.00599   1.86949
    A6        1.93119  -0.00003  -0.00460   0.00268  -0.00195   1.92924
    D1        2.15189   0.00059   0.01267   0.00211   0.01481   2.16670
    D2       -2.10575  -0.00005  -0.00949   0.00442  -0.00505  -2.11079
    D3        2.08872  -0.00003  -0.00475   0.00221  -0.00252   2.08620
    D4       -2.08872   0.00003   0.00475  -0.00221   0.00252  -2.08620
         Item               Value     Threshold  Converged?
 Maximum Force            0.001742     0.000450     NO 
 RMS     Force            0.000675     0.000300     NO 
 Maximum Displacement     0.008676     0.001800     NO 
 RMS     Displacement     0.003454     0.001200     NO 
 Predicted change in Energy=-2.235655D-05
 GradGradGradGradGradGradGradGradGradGradGradGradGradGradGradGradGradGrad

                          Input orientation:                          
 ---------------------------------------------------------------------
 Center     Atomic      Atomic             Coordinates (Angstroms)
 Number     Number       Type             X           Y           Z
 ---------------------------------------------------------------------
      1          6           0       -4.561580    3.129842    0.005852
      2          1           0       -4.230558    2.082182    0.018692
      3          1           0       -4.230539    3.664786   -0.895024
      4          9           0       -4.102817    3.771096    1.116547
      5         17           0       -6.363443    3.116413   -0.017446
 ---------------------------------------------------------------------
                    Distance matrix (angstroms):
                    1          2          3          4          5
     1  C    0.000000
     2  H    1.098786   0.000000
     3  H    1.098786   1.827433   0.000000
     4  F    1.362099   2.018424   2.018424   0.000000
     5  Cl   1.802064   2.370683   2.370683   2.612466   0.000000
 Stoichiometry    CH2ClF
 Framework group  CS[SG(CClF),X(H2)]
 Deg. of freedom     6
 Full point group                 CS      NOp   2
 Largest Abelian subgroup         CS      NOp   2
 Largest concise Abelian subgroup CS      NOp   2
                         Standard orientation:                         
 ---------------------------------------------------------------------
 Center     Atomic      Atomic             Coordinates (Angstroms)
 Number     Number       Type             X           Y           Z
 ---------------------------------------------------------------------
      1          6           0        0.000000   -0.815587    0.000000
      2          1           0       -0.357685   -1.310070    0.913716
      3          1           0       -0.357685   -1.310070   -0.913716
      4          9           0        1.361575   -0.777812    0.000000
      5         17           0       -0.678753    0.853763    0.000000
 ---------------------------------------------------------------------
 Rotational constants (GHZ):          41.7833849           5.5443775           5.0598014
 Standard basis: CC-pVDZ (5D, 7F)
 There are    41 symmetry adapted cartesian basis functions of A'  symmetry.
 There are    18 symmetry adapted cartesian basis functions of A"  symmetry.
 There are    38 symmetry adapted basis functions of A'  symmetry.
 There are    18 symmetry adapted basis functions of A"  symmetry.
    56 basis functions,   151 primitive gaussians,    59 cartesian basis functions
    17 alpha electrons       17 beta electrons
       nuclear repulsion energy       100.3001861496 Hartrees.
 NAtoms=    5 NActive=    5 NUniq=    4 SFac= 1.56D+00 NAtFMM=   60 NAOKFM=F Big=F
 Integral buffers will be    131072 words long.
 Raffenetti 2 integral format.
 Two-electron integral symmetry is turned on.
 One-electron integrals computed using PRISM.
 NBasis=    56 RedAO= T EigKep=  1.55D-02  NBF=    38    18
 NBsUse=    56 1.00D-06 EigRej= -1.00D+00 NBFU=    38    18
 Initial guess from the checkpoint file:  "C:\G16W\Scratch\CH2FCl-ccpvdz.chk"
 B after Tr=     0.000000    0.000000    0.000000
         Rot=    0.999999    0.000000    0.000000    0.001147 Ang=   0.13 deg.
 Initial guess orbital symmetries:
       Occupied  (A') (A') (A') (A') (A') (A') (A") (A') (A') (A')
                 (A') (A") (A') (A") (A') (A') (A")
       Virtual   (A') (A') (A") (A') (A') (A") (A') (A') (A") (A')
                 (A') (A") (A') (A') (A") (A') (A") (A') (A') (A")
                 (A') (A') (A") (A') (A") (A') (A") (A') (A') (A")
                 (A') (A') (A") (A') (A") (A') (A') (A") (A')
 Keep R1 ints in memory in symmetry-blocked form, NReq=2160061.
 Requested convergence on RMS density matrix=1.00D-08 within 128 cycles.
 Requested convergence on MAX density matrix=1.00D-06.
 Requested convergence on             energy=1.00D-06.
 No special actions if energy rises.
 SCF Done:  E(RB3LYP) =  -599.362051437     A.U. after    8 cycles
            NFock=  8  Conv=0.95D-08     -V/T= 2.0027
 Calling FoFJK, ICntrl=      2127 FMM=F ISym2X=1 I1Cent= 0 IOpClX= 0 NMat=1 NMatS=1 NMatT=0.
 ***** Axes restored to original set *****
 -------------------------------------------------------------------
 Center     Atomic                   Forces (Hartrees/Bohr)
 Number     Number              X              Y              Z
 -------------------------------------------------------------------
      1        6           0.000448438    0.000341573    0.000591632
      2        1          -0.000042539    0.000135670   -0.000098324
      3        1          -0.000042542   -0.000152985    0.000068331
      4        9          -0.000187789   -0.000297809   -0.000515825
      5       17          -0.000175568   -0.000026448   -0.000045814
 -------------------------------------------------------------------
 Cartesian Forces:  Max     0.000591632 RMS     0.000277034

 GradGradGradGradGradGradGradGradGradGradGradGradGradGradGradGradGradGrad
 Berny optimization.
 Using GEDIIS/GDIIS optimizer.
 FormGI is forming the generalized inverse of G from B-inverse, IUseBI=4.
 Internal  Forces:  Max     0.000624149 RMS     0.000185636
 Search for a local minimum.
 Step number   4 out of a maximum of   24
 All quantities printed in internal units (Hartrees-Bohrs-Radians)
 Mixed Optimization -- En-DIIS/RFO-DIIS
 Swapping is turned off.
 Update second derivatives using D2CorX and points    1    2    3    4
 DE= -2.41D-05 DEPred=-2.24D-05 R= 1.08D+00
 TightC=F SS=  1.41D+00  RLast= 2.46D-02 DXNew= 6.1490D-01 7.3751D-02
 Trust test= 1.08D+00 RLast= 2.46D-02 DXMaxT set to 3.66D-01
 The second derivative matrix:
                          R1        R2        R3        R4        A1
           R1           0.37357
           R2           0.00127   0.37357
           R3          -0.00567  -0.00567   0.53968
           R4           0.01290   0.01290   0.04222   0.20552
           A1           0.01187   0.01187   0.02436  -0.04885   0.11788
           A2          -0.00810  -0.00810  -0.00503  -0.01249   0.00165
           A3          -0.00387  -0.00387  -0.01065   0.02936   0.01053
           A4          -0.00810  -0.00810  -0.00503  -0.01249   0.00165
           A5          -0.00387  -0.00387  -0.01065   0.02936   0.01053
           A6          -0.00596  -0.00596  -0.00965   0.01614   0.03013
           D1           0.00297   0.00297   0.00684   0.01219   0.00449
           D2           0.01079   0.01079   0.00889   0.00187  -0.00434
           D3           0.00540   0.00540   0.00445   0.00094  -0.00217
           D4          -0.00540  -0.00540  -0.00445  -0.00094   0.00217
                          A2        A3        A4        A5        A6
           A2           0.15753
           A3           0.00428   0.15544
           A4          -0.00247   0.00428   0.15753
           A5           0.00428  -0.00456   0.00428   0.15544
           A6          -0.00831  -0.00797  -0.00831  -0.00797   0.23420
           D1          -0.00277   0.00368  -0.00277   0.00368  -0.00850
           D2           0.00183  -0.00659   0.00183  -0.00659   0.01660
           D3           0.00091  -0.00329   0.00091  -0.00329   0.00830
           D4          -0.00091   0.00329  -0.00091   0.00329  -0.00830
                          D1        D2        D3        D4
           D1           0.03163
           D2          -0.00332   0.00617
           D3          -0.00166   0.00189   0.00333
           D4           0.00166  -0.00189  -0.00095   0.00333
 ITU=  1  1  1  0
     Eigenvalues ---    0.05110   0.05814   0.08176   0.16000   0.20770
     Eigenvalues ---    0.23560   0.37230   0.37697   0.54563
 En-DIIS/RFO-DIIS/Sim-DIIS IScMMF=       -3 using points:     4    3
 RFO step:  Lambda=-1.36638491D-06.
 DidBck=F Rises=F RFO-DIIS coefs:    1.03647   -0.03647
 Iteration  1 RMS(Cart)=  0.00042680 RMS(Int)=  0.00000049
 Iteration  2 RMS(Cart)=  0.00000015 RMS(Int)=  0.00000048
 ClnCor:  largest displacement from symmetrization is 4.10D-13 for atom     3.
 Variable       Old X    -DE/DX   Delta X   Delta X   Delta X     New X
                                 (Linear)    (Quad)   (Total)
    R1        2.07640  -0.00014  -0.00011  -0.00036  -0.00046   2.07594
    R2        2.07640  -0.00014  -0.00011  -0.00036  -0.00046   2.07594
    R3        2.57399  -0.00062  -0.00008  -0.00120  -0.00128   2.57271
    R4        3.40541   0.00018   0.00044   0.00082   0.00126   3.40667
    A1        1.96385  -0.00004   0.00036  -0.00069  -0.00033   1.96352
    A2        1.91546   0.00002   0.00007   0.00045   0.00051   1.91598
    A3        1.86949  -0.00003  -0.00022  -0.00032  -0.00054   1.86896
    A4        1.91546   0.00002   0.00007   0.00045   0.00051   1.91598
    A5        1.86949  -0.00003  -0.00022  -0.00032  -0.00054   1.86896
    A6        1.92924   0.00007  -0.00007   0.00041   0.00033   1.92958
    D1        2.16670  -0.00002   0.00054  -0.00026   0.00028   2.16698
    D2       -2.11079   0.00009  -0.00018   0.00116   0.00097  -2.10982
    D3        2.08620   0.00004  -0.00009   0.00058   0.00049   2.08668
    D4       -2.08620  -0.00004   0.00009  -0.00058  -0.00049  -2.08668
         Item               Value     Threshold  Converged?
 Maximum Force            0.000624     0.000450     NO 
 RMS     Force            0.000186     0.000300     YES
 Maximum Displacement     0.000680     0.001800     YES
 RMS     Displacement     0.000427     0.001200     YES
 Predicted change in Energy=-6.830982D-07
 GradGradGradGradGradGradGradGradGradGradGradGradGradGradGradGradGradGrad

                          Input orientation:                          
 ---------------------------------------------------------------------
 Center     Atomic      Atomic             Coordinates (Angstroms)
 Number     Number       Type             X           Y           Z
 ---------------------------------------------------------------------
      1          6           0       -4.561220    3.130029    0.006176
      2          1           0       -4.230662    2.082475    0.018588
      3          1           0       -4.230643    3.664550   -0.894823
      4          9           0       -4.102671    3.770961    1.116313
      5         17           0       -6.363742    3.116305   -0.017634
 ---------------------------------------------------------------------
                    Distance matrix (angstroms):
                    1          2          3          4          5
     1  C    0.000000
     2  H    1.098541   0.000000
     3  H    1.098541   1.826823   0.000000
     4  F    1.361420   2.018011   2.018011   0.000000
     5  Cl   1.802731   2.370684   2.370684   2.612825   0.000000
 Stoichiometry    CH2ClF
 Framework group  CS[SG(CClF),X(H2)]
 Deg. of freedom     6
 Full point group                 CS      NOp   2
 Largest Abelian subgroup         CS      NOp   2
 Largest concise Abelian subgroup CS      NOp   2
                         Standard orientation:                         
 ---------------------------------------------------------------------
 Center     Atomic      Atomic             Coordinates (Angstroms)
 Number     Number       Type             X           Y           Z
 ---------------------------------------------------------------------
      1          6           0        0.000000   -0.815796    0.000000
      2          1           0       -0.358514   -1.309698    0.913411
      3          1           0       -0.358514   -1.309698   -0.913411
      4          9           0        1.360925   -0.779060    0.000000
      5         17           0       -0.678311    0.854454    0.000000
 ---------------------------------------------------------------------
 Rotational constants (GHZ):          41.8142055           5.5423354           5.0584382
 Standard basis: CC-pVDZ (5D, 7F)
 There are    41 symmetry adapted cartesian basis functions of A'  symmetry.
 There are    18 symmetry adapted cartesian basis functions of A"  symmetry.
 There are    38 symmetry adapted basis functions of A'  symmetry.
 There are    18 symmetry adapted basis functions of A"  symmetry.
    56 basis functions,   151 primitive gaussians,    59 cartesian basis functions
    17 alpha electrons       17 beta electrons
       nuclear repulsion energy       100.2976557882 Hartrees.
 NAtoms=    5 NActive=    5 NUniq=    4 SFac= 1.56D+00 NAtFMM=   60 NAOKFM=F Big=F
 Integral buffers will be    131072 words long.
 Raffenetti 2 integral format.
 Two-electron integral symmetry is turned on.
 One-electron integrals computed using PRISM.
 NBasis=    56 RedAO= T EigKep=  1.55D-02  NBF=    38    18
 NBsUse=    56 1.00D-06 EigRej= -1.00D+00 NBFU=    38    18
 Initial guess from the checkpoint file:  "C:\G16W\Scratch\CH2FCl-ccpvdz.chk"
 B after Tr=     0.000000    0.000000    0.000000
         Rot=    1.000000    0.000000    0.000000    0.000367 Ang=   0.04 deg.
 Initial guess orbital symmetries:
       Occupied  (A') (A') (A') (A') (A') (A') (A") (A') (A') (A')
                 (A") (A') (A') (A") (A') (A') (A")
       Virtual   (A') (A') (A") (A') (A') (A") (A') (A') (A") (A')
                 (A') (A") (A') (A') (A") (A') (A") (A') (A') (A")
                 (A') (A') (A") (A') (A") (A') (A") (A') (A') (A")
                 (A') (A') (A") (A') (A") (A') (A') (A") (A')
 Keep R1 ints in memory in symmetry-blocked form, NReq=2160061.
 Requested convergence on RMS density matrix=1.00D-08 within 128 cycles.
 Requested convergence on MAX density matrix=1.00D-06.
 Requested convergence on             energy=1.00D-06.
 No special actions if energy rises.
 SCF Done:  E(RB3LYP) =  -599.362052336     A.U. after    7 cycles
            NFock=  7  Conv=0.84D-08     -V/T= 2.0027
 Calling FoFJK, ICntrl=      2127 FMM=F ISym2X=1 I1Cent= 0 IOpClX= 0 NMat=1 NMatS=1 NMatT=0.
 ***** Axes restored to original set *****
 -------------------------------------------------------------------
 Center     Atomic                   Forces (Hartrees/Bohr)
 Number     Number              X              Y              Z
 -------------------------------------------------------------------
      1        6           0.000086326    0.000192363    0.000333185
      2        1           0.000009574   -0.000024372   -0.000060361
      3        1           0.000009574   -0.000040088   -0.000051287
      4        9          -0.000087279   -0.000118651   -0.000205512
      5       17          -0.000018196   -0.000009252   -0.000016025
 -------------------------------------------------------------------
 Cartesian Forces:  Max     0.000333185 RMS     0.000123486

 GradGradGradGradGradGradGradGradGradGradGradGradGradGradGradGradGradGrad
 Berny optimization.
 Using GEDIIS/GDIIS optimizer.
 FormGI is forming the generalized inverse of G from B-inverse, IUseBI=4.
 Internal  Forces:  Max     0.000252914 RMS     0.000071388
 Search for a local minimum.
 Step number   5 out of a maximum of   24
 All quantities printed in internal units (Hartrees-Bohrs-Radians)
 Mixed Optimization -- En-DIIS/RFO-DIIS
 Swapping is turned off.
 Update second derivatives using D2CorX and points    1    2    3    4    5
 DE= -8.98D-07 DEPred=-6.83D-07 R= 1.32D+00
 Trust test= 1.32D+00 RLast= 2.55D-03 DXMaxT set to 3.66D-01
 The second derivative matrix:
                          R1        R2        R3        R4        A1
           R1           0.39381
           R2           0.02151   0.39381
           R3          -0.00644  -0.00644   0.40619
           R4           0.00084   0.00084   0.06139   0.21045
           A1          -0.00729  -0.00729  -0.03537  -0.03183   0.10360
           A2           0.00395   0.00395   0.02687  -0.02005   0.00953
           A3          -0.00573  -0.00573  -0.01911   0.02881   0.00621
           A4           0.00395   0.00395   0.02687  -0.02005   0.00953
           A5          -0.00573  -0.00573  -0.01911   0.02881   0.00621
           A6           0.00225   0.00225   0.02486   0.01105   0.04290
           D1           0.00101   0.00101   0.01095   0.00774   0.00423
           D2           0.00018   0.00018  -0.00323   0.00492  -0.00480
           D3           0.00009   0.00009  -0.00161   0.00246  -0.00240
           D4          -0.00009  -0.00009   0.00161  -0.00246   0.00240
                          A2        A3        A4        A5        A6
           A2           0.15313
           A3           0.00646   0.15532
           A4          -0.00687   0.00646   0.15313
           A5           0.00646  -0.00468   0.00646   0.15532
           A6          -0.01484  -0.00626  -0.01484  -0.00626   0.22651
           D1          -0.00230   0.00402  -0.00230   0.00402  -0.00938
           D2           0.00224  -0.00763   0.00224  -0.00763   0.01857
           D3           0.00112  -0.00381   0.00112  -0.00381   0.00928
           D4          -0.00112   0.00381  -0.00112   0.00381  -0.00928
                          D1        D2        D3        D4
           D1           0.03062
           D2          -0.00438   0.00742
           D3          -0.00219   0.00252   0.00364
           D4           0.00219  -0.00252  -0.00126   0.00364
 ITU=  0  1  1  1  0
     Eigenvalues ---    0.05089   0.05812   0.06856   0.16000   0.20544
     Eigenvalues ---    0.23630   0.37230   0.41232   0.43083
 En-DIIS/RFO-DIIS/Sim-DIIS IScMMF=       -3 using points:     5    4    3
 RFO step:  Lambda=-3.37618322D-07.
 DidBck=F Rises=F RFO-DIIS coefs:    1.76605   -0.80444    0.03839
 Iteration  1 RMS(Cart)=  0.00026164 RMS(Int)=  0.00000046
 Iteration  2 RMS(Cart)=  0.00000010 RMS(Int)=  0.00000045
 ClnCor:  largest displacement from symmetrization is 1.55D-13 for atom     3.
 Variable       Old X    -DE/DX   Delta X   Delta X   Delta X     New X
                                 (Linear)    (Quad)   (Total)
    R1        2.07594   0.00003  -0.00024   0.00029   0.00005   2.07599
    R2        2.07594   0.00003  -0.00024   0.00029   0.00005   2.07599
    R3        2.57271  -0.00025  -0.00089   0.00005  -0.00084   2.57187
    R4        3.40667   0.00002   0.00050  -0.00017   0.00033   3.40700
    A1        1.96352  -0.00003  -0.00063  -0.00007  -0.00070   1.96282
    A2        1.91598   0.00002   0.00032   0.00019   0.00052   1.91649
    A3        1.86896  -0.00001  -0.00018  -0.00008  -0.00027   1.86869
    A4        1.91598   0.00002   0.00032   0.00019   0.00052   1.91649
    A5        1.86896  -0.00001  -0.00018  -0.00008  -0.00027   1.86869
    A6        1.92958   0.00001   0.00033  -0.00017   0.00016   1.92974
    D1        2.16698  -0.00001  -0.00035   0.00017  -0.00018   2.16679
    D2       -2.10982   0.00005   0.00094   0.00017   0.00111  -2.10871
    D3        2.08668   0.00002   0.00047   0.00009   0.00056   2.08724
    D4       -2.08668  -0.00002  -0.00047  -0.00009  -0.00056  -2.08724
         Item               Value     Threshold  Converged?
 Maximum Force            0.000253     0.000450     YES
 RMS     Force            0.000071     0.000300     YES
 Maximum Displacement     0.000580     0.001800     YES
 RMS     Displacement     0.000262     0.001200     YES
 Predicted change in Energy=-1.678134D-07
 Optimization completed.
    -- Stationary point found.
                           ----------------------------
                           !   Optimized Parameters   !
                           ! (Angstroms and Degrees)  !
 --------------------------                            --------------------------
 ! Name  Definition              Value          Derivative Info.                !
 --------------------------------------------------------------------------------
 ! R1    R(1,2)                  1.0985         -DE/DX =    0.0                 !
 ! R2    R(1,3)                  1.0985         -DE/DX =    0.0                 !
 ! R3    R(1,4)                  1.3614         -DE/DX =   -0.0003              !
 ! R4    R(1,5)                  1.8027         -DE/DX =    0.0                 !
 ! A1    A(2,1,3)              112.5015         -DE/DX =    0.0                 !
 ! A2    A(2,1,4)              109.7775         -DE/DX =    0.0                 !
 ! A3    A(2,1,5)              107.0832         -DE/DX =    0.0                 !
 ! A4    A(3,1,4)              109.7775         -DE/DX =    0.0                 !
 ! A5    A(3,1,5)              107.0832         -DE/DX =    0.0                 !
 ! A6    A(4,1,5)              110.5566         -DE/DX =    0.0                 !
 ! D1    D(2,1,4,3)            124.1586         -DE/DX =    0.0                 !
 ! D2    D(2,1,5,3)           -120.8837         -DE/DX =    0.0                 !
 ! D3    D(2,1,5,4)            119.5581         -DE/DX =    0.0                 !
 ! D4    D(3,1,5,4)           -119.5581         -DE/DX =    0.0                 !
 --------------------------------------------------------------------------------
 GradGradGradGradGradGradGradGradGradGradGradGradGradGradGradGradGradGrad

                          Input orientation:                          
 ---------------------------------------------------------------------
 Center     Atomic      Atomic             Coordinates (Angstroms)
 Number     Number       Type             X           Y           Z
 ---------------------------------------------------------------------
      1          6           0       -4.561220    3.130029    0.006176
      2          1           0       -4.230662    2.082475    0.018588
      3          1           0       -4.230643    3.664550   -0.894823
      4          9           0       -4.102671    3.770961    1.116313
      5         17           0       -6.363742    3.116305   -0.017634
 ---------------------------------------------------------------------
                    Distance matrix (angstroms):
                    1          2          3          4          5
     1  C    0.000000
     2  H    1.098541   0.000000
     3  H    1.098541   1.826823   0.000000
     4  F    1.361420   2.018011   2.018011   0.000000
     5  Cl   1.802731   2.370684   2.370684   2.612825   0.000000
 Stoichiometry    CH2ClF
 Framework group  CS[SG(CClF),X(H2)]
 Deg. of freedom     6
 Full point group                 CS      NOp   2
 Largest Abelian subgroup         CS      NOp   2
 Largest concise Abelian subgroup CS      NOp   2
                         Standard orientation:                         
 ---------------------------------------------------------------------
 Center     Atomic      Atomic             Coordinates (Angstroms)
 Number     Number       Type             X           Y           Z
 ---------------------------------------------------------------------
      1          6           0        0.000000   -0.815796    0.000000
      2          1           0       -0.358514   -1.309698    0.913411
      3          1           0       -0.358514   -1.309698   -0.913411
      4          9           0        1.360925   -0.779060    0.000000
      5         17           0       -0.678311    0.854454    0.000000
 ---------------------------------------------------------------------
 Rotational constants (GHZ):          41.8142055           5.5423354           5.0584382

 **********************************************************************

            Population analysis using the SCF Density.

 **********************************************************************

 Orbital symmetries:
       Occupied  (A') (A') (A') (A') (A') (A') (A") (A') (A') (A')
                 (A") (A') (A') (A") (A') (A') (A")
       Virtual   (A') (A') (A") (A') (A') (A") (A') (A') (A") (A')
                 (A') (A") (A') (A') (A") (A') (A") (A') (A') (A")
                 (A') (A') (A") (A') (A") (A') (A") (A') (A') (A")
                 (A') (A') (A") (A') (A") (A') (A') (A") (A')
 The electronic state is 1-A'.
 Alpha  occ. eigenvalues -- -101.54189 -24.71005 -10.33029  -9.46089  -7.22341
 Alpha  occ. eigenvalues --   -7.21385  -7.21325  -1.22910  -0.85804  -0.68593
 Alpha  occ. eigenvalues --   -0.52713  -0.52681  -0.48745  -0.38276  -0.37400
 Alpha  occ. eigenvalues --   -0.32212  -0.30755
 Alpha virt. eigenvalues --    0.01650   0.06971   0.10196   0.10898   0.40162
 Alpha virt. eigenvalues --    0.43448   0.45714   0.49215   0.55214   0.55479
 Alpha virt. eigenvalues --    0.56391   0.59116   0.68463   0.71476   0.71657
 Alpha virt. eigenvalues --    0.73871   0.77350   0.91735   1.05080   1.06536
 Alpha virt. eigenvalues --    1.15190   1.22756   1.26516   1.34078   1.53306
 Alpha virt. eigenvalues --    1.62158   1.62823   1.67131   1.77623   1.80754
 Alpha virt. eigenvalues --    1.99178   2.27278   2.35204   2.42786   3.57330
 Alpha virt. eigenvalues --    3.57523   3.76631   3.81894   4.01474
          Condensed to atoms (all electrons):
               1          2          3          4          5
     1  C    4.407847   0.389512   0.389512   0.342958   0.280318
     2  H    0.389512   0.653608  -0.039913  -0.027469  -0.046088
     3  H    0.389512  -0.039913   0.653608  -0.027469  -0.046088
     4  F    0.342958  -0.027469  -0.027469   8.944887  -0.039655
     5  Cl   0.280318  -0.046088  -0.046088  -0.039655  16.988813
 Mulliken charges:
               1
     1  C    0.189853
     2  H    0.070349
     3  H    0.070349
     4  F   -0.193251
     5  Cl  -0.137301
 Sum of Mulliken charges =   0.00000
 Mulliken charges with hydrogens summed into heavy atoms:
               1
     1  C    0.330551
     4  F   -0.193251
     5  Cl  -0.137301
 Electronic spatial extent (au):  <R**2>=            237.5389
 Charge=              0.0000 electrons
 Dipole moment (field-independent basis, Debye):
    X=             -0.8589    Y=             -1.6411    Z=              0.0000  Tot=              1.8523
 Quadrupole moment (field-independent basis, Debye-Ang):
   XX=            -25.7480   YY=            -22.2961   ZZ=            -23.0597
   XY=              1.4031   XZ=              0.0000   YZ=              0.0000
 Traceless Quadrupole moment (field-independent basis, Debye-Ang):
   XX=             -2.0467   YY=              1.4052   ZZ=              0.6416
   XY=              1.4031   XZ=              0.0000   YZ=              0.0000
 Octapole moment (field-independent basis, Debye-Ang**2):
  XXX=              6.3079  YYY=             -3.1751  ZZZ=              0.0000  XYY=              0.3620
  XXY=              0.2400  XXZ=              0.0000  XZZ=              2.5198  YZZ=             -2.8396
  YYZ=              0.0000  XYZ=              0.0000
 Hexadecapole moment (field-independent basis, Debye-Ang**3):
 XXXX=           -111.9343 YYYY=           -121.7059 ZZZZ=            -28.4680 XXXY=             36.0590
 XXXZ=              0.0000 YYYX=             32.9145 YYYZ=              0.0000 ZZZX=              0.0000
 ZZZY=              0.0000 XXYY=            -39.1344 XXZZ=            -23.2841 YYZZ=            -24.9615
 XXYZ=              0.0000 YYXZ=              0.0000 ZZXY=             12.4155
 N-N= 1.002976557882D+02 E-N=-1.624432307148D+03  KE= 5.977231877423D+02
 Symmetry A'   KE= 5.434251884061D+02
 Symmetry A"   KE= 5.429799933616D+01
 1|1|UNPC-DESKTOP-SI45VP7|FOpt|RB3LYP|CC-pVDZ|C1H2Cl1F1|DOG OF ROMAN|07
 -Sep-2025|0||# B3LYP/cc-pVDZ Opt Freq SCF=Tight Integral=UltraFine||CH
 2FCl-ccpvdz||0,1|C,-4.5612200819,3.1300290441,0.0061758294|H,-4.230662
 1878,2.0824746908,0.0185879064|H,-4.2306426783,3.6645498708,-0.8948229
 331|F,-4.1026705026,3.7709607785,1.1163127924|Cl,-6.3637415891,3.11630
 47165,-0.0176339212||Version=EM64W-G16RevB.01|State=1-A'|HF=-599.36205
 23|RMSD=8.399e-009|RMSF=1.235e-004|Dipole=0.4794858,-0.2744005,-0.4752
 658|Quadrupole=0.0040222,0.2375005,-0.2415227,-0.8179226,-1.4166947,-0
 .4148106|PG=CS [SG(C1Cl1F1),X(H2)]||@


 THEREFORE SHALL EVIL COME UPON THEE...
 THOU SHALT NOT KNOW FROM WHENCE IT RISETH...
 AND MISCHIEF SHALL FALL UPON THEE...
 THOU SHALT NOT BE ABLE TO PUT IT OFF...
 AND DESOLATION SHALL COME UPON THEE SUDDENLY...
 WHICH THOU SHALT NOT KNOW...

                                         ISAIAH 47.11
 Job cpu time:       0 days  0 hours  0 minutes 13.0 seconds.
 Elapsed time:       0 days  0 hours  0 minutes 11.4 seconds.
 File lengths (MBytes):  RWF=      6 Int=      0 D2E=      0 Chk=      1 Scr=      1
 Normal termination of Gaussian 16 at Sun Sep 07 16:57:11 2025.
 Link1:  Proceeding to internal job step number  2.
 -------------------------------------------------------------------
 #N Geom=AllCheck Guess=TCheck SCRF=Check GenChk RB3LYP/CC-pVDZ Freq
 -------------------------------------------------------------------
 1/10=4,29=7,30=1,38=1,40=1/1,3;
 2/12=2,40=1/2;
 3/5=16,11=2,14=-4,25=1,30=1,70=2,71=2,74=-5,75=-5,116=1,140=1/1,2,3;
 4/5=101/1;
 5/5=2,32=2,38=6,98=1/2;
 8/6=4,10=90,11=11/1;
 11/6=1,8=1,9=11,15=111,16=1/1,2,10;
 10/6=1/2;
 6/7=2,8=2,9=2,10=2,28=1/1;
 7/8=1,10=1,25=1/1,2,3,16;
 1/10=4,30=1/3;
 99//99;
 Structure from the checkpoint file:  "C:\G16W\Scratch\CH2FCl-ccpvdz.chk"
 -------------
 CH2FCl-ccpvdz
 -------------
 Charge =  0 Multiplicity = 1
 Redundant internal coordinates found in file.  (old form).
 C,0,-4.5612200819,3.1300290441,0.0061758294
 H,0,-4.2306621878,2.0824746908,0.0185879064
 H,0,-4.2306426783,3.6645498708,-0.8948229331
 F,0,-4.1026705026,3.7709607785,1.1163127924
 Cl,0,-6.3637415891,3.1163047165,-0.0176339212
 Recover connectivity data from disk.

 GradGradGradGradGradGradGradGradGradGradGradGradGradGradGradGradGradGrad
 Berny optimization.
 Initialization pass.
                           ----------------------------
                           !    Initial Parameters    !
                           ! (Angstroms and Degrees)  !
 --------------------------                            --------------------------
 ! Name  Definition              Value          Derivative Info.                !
 --------------------------------------------------------------------------------
 ! R1    R(1,2)                  1.0985         calculate D2E/DX2 analytically  !
 ! R2    R(1,3)                  1.0985         calculate D2E/DX2 analytically  !
 ! R3    R(1,4)                  1.3614         calculate D2E/DX2 analytically  !
 ! R4    R(1,5)                  1.8027         calculate D2E/DX2 analytically  !
 ! A1    A(2,1,3)              112.5015         calculate D2E/DX2 analytically  !
 ! A2    A(2,1,4)              109.7775         calculate D2E/DX2 analytically  !
 ! A3    A(2,1,5)              107.0832         calculate D2E/DX2 analytically  !
 ! A4    A(3,1,4)              109.7775         calculate D2E/DX2 analytically  !
 ! A5    A(3,1,5)              107.0832         calculate D2E/DX2 analytically  !
 ! A6    A(4,1,5)              110.5566         calculate D2E/DX2 analytically  !
 ! D1    D(2,1,4,3)            124.1586         calculate D2E/DX2 analytically  !
 ! D2    D(2,1,5,3)           -120.8837         calculate D2E/DX2 analytically  !
 ! D3    D(2,1,5,4)            119.5581         calculate D2E/DX2 analytically  !
 ! D4    D(3,1,5,4)           -119.5581         calculate D2E/DX2 analytically  !
 --------------------------------------------------------------------------------
 Trust Radius=3.00D-01 FncErr=1.00D-07 GrdErr=1.00D-07 EigMax=2.50D+02 EigMin=1.00D-04
 Number of steps in this run=      2 maximum allowed number of steps=      2.
 GradGradGradGradGradGradGradGradGradGradGradGradGradGradGradGradGradGrad

                          Input orientation:                          
 ---------------------------------------------------------------------
 Center     Atomic      Atomic             Coordinates (Angstroms)
 Number     Number       Type             X           Y           Z
 ---------------------------------------------------------------------
      1          6           0       -4.561220    3.130029    0.006176
      2          1           0       -4.230662    2.082475    0.018588
      3          1           0       -4.230643    3.664550   -0.894823
      4          9           0       -4.102671    3.770961    1.116313
      5         17           0       -6.363742    3.116305   -0.017634
 ---------------------------------------------------------------------
                    Distance matrix (angstroms):
                    1          2          3          4          5
     1  C    0.000000
     2  H    1.098541   0.000000
     3  H    1.098541   1.826823   0.000000
     4  F    1.361420   2.018011   2.018011   0.000000
     5  Cl   1.802731   2.370684   2.370684   2.612825   0.000000
 Stoichiometry    CH2ClF
 Framework group  CS[SG(CClF),X(H2)]
 Deg. of freedom     6
 Full point group                 CS      NOp   2
 Largest Abelian subgroup         CS      NOp   2
 Largest concise Abelian subgroup CS      NOp   2
                         Standard orientation:                         
 ---------------------------------------------------------------------
 Center     Atomic      Atomic             Coordinates (Angstroms)
 Number     Number       Type             X           Y           Z
 ---------------------------------------------------------------------
      1          6           0        0.000000   -0.815796    0.000000
      2          1           0       -0.358514   -1.309698    0.913411
      3          1           0       -0.358514   -1.309698   -0.913411
      4          9           0        1.360925   -0.779060    0.000000
      5         17           0       -0.678311    0.854454    0.000000
 ---------------------------------------------------------------------
 Rotational constants (GHZ):          41.8142055           5.5423354           5.0584382
 Standard basis: CC-pVDZ (5D, 7F)
 There are    41 symmetry adapted cartesian basis functions of A'  symmetry.
 There are    18 symmetry adapted cartesian basis functions of A"  symmetry.
 There are    38 symmetry adapted basis functions of A'  symmetry.
 There are    18 symmetry adapted basis functions of A"  symmetry.
    56 basis functions,   151 primitive gaussians,    59 cartesian basis functions
    17 alpha electrons       17 beta electrons
       nuclear repulsion energy       100.2976557882 Hartrees.
 NAtoms=    5 NActive=    5 NUniq=    4 SFac= 1.56D+00 NAtFMM=   60 NAOKFM=F Big=F
 Integral buffers will be    131072 words long.
 Raffenetti 2 integral format.
 Two-electron integral symmetry is turned on.
 One-electron integrals computed using PRISM.
 NBasis=    56 RedAO= T EigKep=  1.55D-02  NBF=    38    18
 NBsUse=    56 1.00D-06 EigRej= -1.00D+00 NBFU=    38    18
 Initial guess from the checkpoint file:  "C:\G16W\Scratch\CH2FCl-ccpvdz.chk"
 B after Tr=     0.000000    0.000000    0.000000
         Rot=    1.000000    0.000000    0.000000    0.000000 Ang=   0.00 deg.
 Initial guess orbital symmetries:
       Occupied  (A') (A') (A') (A') (A') (A') (A") (A') (A') (A')
                 (A") (A') (A') (A") (A') (A') (A")
       Virtual   (A') (A') (A") (A') (A') (A") (A') (A') (A") (A')
                 (A') (A") (A') (A') (A") (A') (A") (A') (A') (A")
                 (A') (A') (A") (A') (A") (A') (A") (A') (A') (A")
                 (A') (A') (A") (A') (A") (A') (A') (A") (A')
 Keep R1 ints in memory in symmetry-blocked form, NReq=2160061.
 Requested convergence on RMS density matrix=1.00D-08 within 128 cycles.
 Requested convergence on MAX density matrix=1.00D-06.
 Requested convergence on             energy=1.00D-06.
 No special actions if energy rises.
 SCF Done:  E(RB3LYP) =  -599.362052336     A.U. after    1 cycles
            NFock=  1  Conv=0.13D-08     -V/T= 2.0027
 DoSCS=F DFT=T ScalE2(SS,OS)=  1.000000  1.000000
 Range of M.O.s used for correlation:     1    56
 NBasis=    56 NAE=    17 NBE=    17 NFC=     0 NFV=     0
 NROrb=     56 NOA=    17 NOB=    17 NVA=    39 NVB=    39
 Symmetrizing basis deriv contribution to polar:
 IMax=3 JMax=2 DiffMx= 0.00D+00
 G2DrvN: will do     6 centers at a time, making    1 passes.
 Calling FoFCou, ICntrl=  3107 FMM=F I1Cent=   0 AccDes= 0.00D+00.
 End of G2Drv F.D. properties file   721 does not exist.
 End of G2Drv F.D. properties file   722 does not exist.
 End of G2Drv F.D. properties file   788 does not exist.
          IDoAtm=11111
          Differentiating once with respect to electric field.
                with respect to dipole field.
          Differentiating once with respect to nuclear coordinates.
 Keep R1 ints in memory in symmetry-blocked form, NReq=2161243.
          There are    15 degrees of freedom in the 1st order CPHF.  IDoFFX=4 NUNeed=    15.
     15 vectors produced by pass  0 Test12= 4.42D-15 6.67D-09 XBig12= 1.62D+01 2.10D+00.
 AX will form    15 AO Fock derivatives at one time.
     15 vectors produced by pass  1 Test12= 4.42D-15 6.67D-09 XBig12= 1.87D+00 3.72D-01.
     15 vectors produced by pass  2 Test12= 4.42D-15 6.67D-09 XBig12= 4.49D-02 6.82D-02.
     15 vectors produced by pass  3 Test12= 4.42D-15 6.67D-09 XBig12= 1.50D-04 3.35D-03.
     15 vectors produced by pass  4 Test12= 4.42D-15 6.67D-09 XBig12= 1.92D-07 1.11D-04.
      9 vectors produced by pass  5 Test12= 4.42D-15 6.67D-09 XBig12= 1.12D-10 2.26D-06.
      4 vectors produced by pass  6 Test12= 4.42D-15 6.67D-09 XBig12= 6.24D-14 6.81D-08.
 InvSVY:  IOpt=1 It=  1 EMax= 8.88D-16
 Solved reduced A of dimension    88 with    15 vectors.
 Isotropic polarizability for W=    0.000000       21.10 Bohr**3.
 End of Minotr F.D. properties file   721 does not exist.
 End of Minotr F.D. properties file   722 does not exist.
 End of Minotr F.D. properties file   788 does not exist.

 **********************************************************************

            Population analysis using the SCF Density.

 **********************************************************************

 Orbital symmetries:
       Occupied  (A') (A') (A') (A') (A') (A') (A") (A') (A') (A')
                 (A") (A') (A') (A") (A') (A') (A")
       Virtual   (A') (A') (A") (A') (A') (A") (A') (A') (A") (A')
                 (A') (A") (A') (A') (A") (A') (A") (A') (A') (A")
                 (A') (A') (A") (A') (A") (A') (A") (A') (A') (A")
                 (A') (A') (A") (A') (A") (A') (A') (A") (A')
 The electronic state is 1-A'.
 Alpha  occ. eigenvalues -- -101.54189 -24.71005 -10.33029  -9.46089  -7.22341
 Alpha  occ. eigenvalues --   -7.21385  -7.21325  -1.22910  -0.85804  -0.68593
 Alpha  occ. eigenvalues --   -0.52713  -0.52681  -0.48745  -0.38276  -0.37400
 Alpha  occ. eigenvalues --   -0.32212  -0.30755
 Alpha virt. eigenvalues --    0.01650   0.06971   0.10196   0.10898   0.40162
 Alpha virt. eigenvalues --    0.43448   0.45714   0.49215   0.55214   0.55479
 Alpha virt. eigenvalues --    0.56391   0.59116   0.68463   0.71476   0.71657
 Alpha virt. eigenvalues --    0.73871   0.77350   0.91735   1.05080   1.06536
 Alpha virt. eigenvalues --    1.15190   1.22756   1.26516   1.34078   1.53306
 Alpha virt. eigenvalues --    1.62158   1.62823   1.67131   1.77623   1.80754
 Alpha virt. eigenvalues --    1.99178   2.27278   2.35204   2.42786   3.57330
 Alpha virt. eigenvalues --    3.57523   3.76631   3.81894   4.01474
          Condensed to atoms (all electrons):
               1          2          3          4          5
     1  C    4.407847   0.389512   0.389512   0.342958   0.280318
     2  H    0.389512   0.653608  -0.039913  -0.027469  -0.046088
     3  H    0.389512  -0.039913   0.653608  -0.027469  -0.046088
     4  F    0.342958  -0.027469  -0.027469   8.944887  -0.039655
     5  Cl   0.280318  -0.046088  -0.046088  -0.039655  16.988813
 Mulliken charges:
               1
     1  C    0.189853
     2  H    0.070349
[...]
 XXXZ=              0.0000 YYYX=             32.9145 YYYZ=              0.0000 ZZZX=              0.0000
 ZZZY=              0.0000 XXYY=            -39.1344 XXZZ=            -23.2841 YYZZ=            -24.9615
 XXYZ=              0.0000 YYXZ=              0.0000 ZZXY=             12.4155
 N-N= 1.002976557882D+02 E-N=-1.624432307284D+03  KE= 5.977231878477D+02
 Symmetry A'   KE= 5.434251884823D+02
 Symmetry A"   KE= 5.429799936544D+01
  Exact polarizability:  19.490  -5.118  27.487   0.000   0.000  16.324
 Approx polarizability:  28.658  -8.361  38.805   0.000   0.000  21.638
 Calling FoFJK, ICntrl=    100127 FMM=F ISym2X=1 I1Cent= 0 IOpClX= 0 NMat=1 NMatS=1 NMatT=0.
 Full mass-weighted force constant matrix:
 Low frequencies ---   -4.7612    0.0017    0.0045    0.0063    6.8458   12.8193
 Low frequencies ---  375.4259  724.4100  986.7208
 Diagonal vibrational polarizability:
        4.9422731       5.0438706       0.1156817
 Harmonic frequencies (cm**-1), IR intensities (KM/Mole), Raman scattering
 activities (A**4/AMU), depolarization ratios for plane and unpolarized
 incident light, reduced masses (AMU), force constants (mDyne/A),
 and normal coordinates:
                      1                      2                      3
                     A'                     A'                     A"
 Frequencies --    375.4259               724.4100               986.7208
 Red. masses --     15.7249                 6.5715                 1.3205
 Frc consts  --      1.3058                 2.0318                 0.7575
 IR Inten    --      1.1980                99.8251                 0.5551
  Atom  AN      X      Y      Z        X      Y      Z        X      Y      Z
     1   6    -0.33  -0.18   0.00    -0.10   0.60   0.00     0.00   0.00  -0.16
     2   1    -0.21  -0.30  -0.01    -0.14   0.52  -0.06     0.07   0.66   0.21
     3   1    -0.21  -0.30   0.01    -0.14   0.52   0.06    -0.07  -0.66   0.21
     4   9    -0.38   0.54   0.00     0.00  -0.07   0.00     0.00   0.00   0.03
     5  17     0.33  -0.22   0.00     0.04  -0.20   0.00     0.00   0.00   0.02
                      4                      5                      6
                     A'                     A"                     A'
 Frequencies --   1099.0368              1236.2809              1348.0948
 Red. masses --      8.3318                 1.0940                 1.1401
 Frc consts  --      5.9294                 0.9852                 1.2208
 IR Inten    --    175.4446                 3.4084                43.3610
  Atom  AN      X      Y      Z        X      Y      Z        X      Y      Z
     1   6     0.60   0.06   0.00     0.00   0.00  -0.07     0.05  -0.09   0.00
     2   1     0.42   0.23   0.01     0.67  -0.21   0.08    -0.45   0.53   0.12
     3   1     0.42   0.23  -0.01    -0.67   0.21   0.08    -0.45   0.53  -0.12
     4   9    -0.42  -0.04   0.00     0.00   0.00   0.04     0.02   0.02   0.00
     5  17     0.00  -0.02   0.00     0.00   0.00  -0.01     0.00  -0.01   0.00
                      7                      8                      9
                     A'                     A'                     A"
 Frequencies --   1476.2380              3075.4615              3157.6037
 Red. masses --      1.0958                 1.0522                 1.1202
 Frc consts  --      1.4070                 5.8634                 6.5803
 IR Inten    --      1.0811                25.9718                14.9399
  Atom  AN      X      Y      Z        X      Y      Z        X      Y      Z
     1   6    -0.08  -0.04   0.00     0.04   0.05   0.00     0.00   0.00  -0.10
     2   1     0.48   0.33   0.40    -0.23  -0.30   0.60    -0.23  -0.31   0.59
     3   1     0.48   0.33  -0.40    -0.23  -0.30  -0.60     0.23   0.31   0.59
     4   9     0.00  -0.01   0.00     0.00   0.00   0.00     0.00   0.00   0.00
     5  17     0.00   0.00   0.00     0.00   0.00   0.00     0.00   0.00   0.00

 -------------------
 - Thermochemistry -
 -------------------
 Temperature   298.150 Kelvin.  Pressure   1.00000 Atm.
 Atom     1 has atomic number  6 and mass  12.00000
 Atom     2 has atomic number  1 and mass   1.00783
 Atom     3 has atomic number  1 and mass   1.00783
 Atom     4 has atomic number  9 and mass  18.99840
 Atom     5 has atomic number 17 and mass  34.96885
 Molecular mass:    67.98291 amu.
 Principal axes and moments of inertia in atomic units:
                           1         2         3
     Eigenvalues --    43.16096 325.62829 356.77835
           X            0.72085   0.69309   0.00000
           Y           -0.69309   0.72085   0.00000
           Z            0.00000   0.00000   1.00000
 This molecule is an asymmetric top.
 Rotational symmetry number  1.
 Rotational temperatures (Kelvin)      2.00677     0.26599     0.24277
 Rotational constants (GHZ):          41.81421     5.54234     5.05844
 Zero-point vibrational energy      80624.0 (Joules/Mol)
                                   19.26959 (Kcal/Mol)
 Warning -- explicit consideration of   1 degrees of freedom as
           vibrations may cause significant error
 Vibrational temperatures:    540.15  1042.26  1419.67  1581.27  1778.73
          (Kelvin)           1939.61  2123.98  4424.90  4543.09
 
 Zero-point correction=                           0.030708 (Hartree/Particle)
 Thermal correction to Energy=                    0.034071
 Thermal correction to Enthalpy=                  0.035015
 Thermal correction to Gibbs Free Energy=         0.004954
 Sum of electronic and zero-point Energies=           -599.331344
 Sum of electronic and thermal Energies=              -599.327982
 Sum of electronic and thermal Enthalpies=            -599.327037
 Sum of electronic and thermal Free Energies=         -599.357098
 
                     E (Thermal)             CV                S
                      KCal/Mol        Cal/Mol-Kelvin    Cal/Mol-Kelvin
 Total                   21.380              9.330             63.268
 Electronic               0.000              0.000              0.000
 Translational            0.889              2.981             38.568
 Rotational               0.889              2.981             23.132
 Vibrational             19.602              3.369              1.568
 Vibration     1          0.746              1.522              1.058
                       Q            Log10(Q)             Ln(Q)
 Total Bot       0.526204D-02         -2.278846         -5.247236
 Total V=0       0.701230D+12         11.845861         27.276102
 Vib (Bot)       0.942214D-14        -14.025850        -32.295714
 Vib (Bot)    1  0.483135D+00         -0.315932         -0.727459
 Vib (V=0)       0.125561D+01          0.098856          0.227624
 Vib (V=0)    1  0.119528D+01          0.077471          0.178384
 Electronic      0.100000D+01          0.000000          0.000000
 Translational   0.220320D+08          7.343053         16.908005
 Rotational      0.253485D+05          4.403951         10.140473
 ***** Axes restored to original set *****
 -------------------------------------------------------------------
 Center     Atomic                   Forces (Hartrees/Bohr)
 Number     Number              X              Y              Z
 -------------------------------------------------------------------
      1        6           0.000086301    0.000192349    0.000333160
      2        1           0.000009578   -0.000024375   -0.000060359
      3        1           0.000009577   -0.000040085   -0.000051288
      4        9          -0.000087265   -0.000118637   -0.000205488
      5       17          -0.000018191   -0.000009252   -0.000016025
 -------------------------------------------------------------------
 Cartesian Forces:  Max     0.000333160 RMS     0.000123474
 FormGI is forming the generalized inverse of G from B-inverse, IUseBI=4.

 GradGradGradGradGradGradGradGradGradGradGradGradGradGradGradGradGradGrad
 Berny optimization.
 Internal  Forces:  Max     0.000252883 RMS     0.000071380
 Search for a local minimum.
 Step number   1 out of a maximum of    2
 All quantities printed in internal units (Hartrees-Bohrs-Radians)
 Second derivative matrix not updated -- analytic derivatives used.
 The second derivative matrix:
                          R1        R2        R3        R4        A1
           R1           0.34248
           R2           0.00235   0.34248
           R3           0.01251   0.01251   0.38304
           R4           0.00416   0.00416   0.04077   0.19596
           A1           0.00406   0.00406  -0.00673  -0.00906   0.01972
           A2           0.00145  -0.00135   0.01506  -0.01318  -0.01071
           A3          -0.00335  -0.00242  -0.01654   0.01284  -0.01306
           A4          -0.00135   0.00145   0.01506  -0.01318  -0.01071
           A5          -0.00242  -0.00335  -0.01654   0.01284  -0.01306
           A6           0.00152   0.00152   0.00838   0.01154   0.02881
           D1           0.00518   0.00518   0.01195  -0.02930   0.01034
           D2          -0.00165  -0.00165   0.02586  -0.00324  -0.00909
           D3           0.00059  -0.00224   0.01293  -0.00162  -0.00454
           D4           0.00224  -0.00059  -0.01293   0.00162   0.00454
                          A2        A3        A4        A5        A6
           A2           0.05200
           A3          -0.02250   0.09025
           A4           0.00055   0.02530   0.05200
           A5           0.02530  -0.03623  -0.02250   0.09025
           A6          -0.04781  -0.04416  -0.04781  -0.04416   0.16163
           D1           0.02216  -0.01456   0.02216  -0.01456  -0.02856
           D2           0.01110  -0.01389   0.01110  -0.01389   0.01392
           D3           0.02217   0.00245  -0.01107  -0.01634   0.00696
           D4           0.01107   0.01634  -0.02217  -0.00245  -0.00696
                          D1        D2        D3        D4
           D1           0.04310
           D2           0.00360   0.02576
           D3           0.00180   0.01288   0.03222
           D4          -0.00180  -0.01288   0.01933   0.03222
 ITU=  0
     Eigenvalues ---    0.04451   0.07456   0.07963   0.14977   0.20039
     Eigenvalues ---    0.23125   0.33936   0.34020   0.40343
 Angle between quadratic step and forces=  47.74 degrees.
 Linear search not attempted -- first point.
 Iteration  1 RMS(Cart)=  0.00027371 RMS(Int)=  0.00000015
 Iteration  2 RMS(Cart)=  0.00000011 RMS(Int)=  0.00000009
 ClnCor:  largest displacement from symmetrization is 1.35D-12 for atom     3.
 Variable       Old X    -DE/DX   Delta X   Delta X   Delta X     New X
                                 (Linear)    (Quad)   (Total)
    R1        2.07594   0.00003   0.00000   0.00012   0.00012   2.07606
    R2        2.07594   0.00003   0.00000   0.00012   0.00012   2.07606
    R3        2.57271  -0.00025   0.00000  -0.00089  -0.00089   2.57182
    R4        3.40667   0.00002   0.00000   0.00031   0.00031   3.40697
    A1        1.96352  -0.00003   0.00000  -0.00080  -0.00080   1.96272
    A2        1.91598   0.00002   0.00000   0.00051   0.00051   1.91649
    A3        1.86896  -0.00001   0.00000  -0.00023  -0.00023   1.86873
    A4        1.91598   0.00002   0.00000   0.00051   0.00051   1.91649
    A5        1.86896  -0.00001   0.00000  -0.00023  -0.00023   1.86873
    A6        1.92958   0.00001   0.00000   0.00019   0.00019   1.92977
    D1        2.16698  -0.00001   0.00000  -0.00032  -0.00032   2.16666
    D2       -2.10982   0.00005   0.00000   0.00119   0.00119  -2.10863
    D3        2.08668   0.00002   0.00000   0.00060   0.00060   2.08728
    D4       -2.08668  -0.00002   0.00000  -0.00060  -0.00060  -2.08728
         Item               Value     Threshold  Converged?
 Maximum Force            0.000253     0.000450     YES
 RMS     Force            0.000071     0.000300     YES
 Maximum Displacement     0.000625     0.001800     YES
 RMS     Displacement     0.000274     0.001200     YES
 Predicted change in Energy=-1.895472D-07
 Optimization completed.
    -- Stationary point found.
                           ----------------------------
                           !   Optimized Parameters   !
                           ! (Angstroms and Degrees)  !
 --------------------------                            --------------------------
 ! Name  Definition              Value          Derivative Info.                !
 --------------------------------------------------------------------------------
 ! R1    R(1,2)                  1.0985         -DE/DX =    0.0                 !
 ! R2    R(1,3)                  1.0985         -DE/DX =    0.0                 !
 ! R3    R(1,4)                  1.3614         -DE/DX =   -0.0003              !
 ! R4    R(1,5)                  1.8027         -DE/DX =    0.0                 !
 ! A1    A(2,1,3)              112.5015         -DE/DX =    0.0                 !
 ! A2    A(2,1,4)              109.7775         -DE/DX =    0.0                 !
 ! A3    A(2,1,5)              107.0832         -DE/DX =    0.0                 !
 ! A4    A(3,1,4)              109.7775         -DE/DX =    0.0                 !
 ! A5    A(3,1,5)              107.0832         -DE/DX =    0.0                 !
 ! A6    A(4,1,5)              110.5566         -DE/DX =    0.0                 !
 ! D1    D(2,1,4,3)            124.1586         -DE/DX =    0.0                 !
 ! D2    D(2,1,5,3)           -120.8837         -DE/DX =    0.0                 !
 ! D3    D(2,1,5,4)            119.5581         -DE/DX =    0.0                 !
 ! D4    D(3,1,5,4)           -119.5581         -DE/DX =    0.0                 !
 --------------------------------------------------------------------------------
 GradGradGradGradGradGradGradGradGradGradGradGradGradGradGradGradGradGrad


 ----------------------------------------------------------------------

 Electric dipole moment (input orientation):
 (Debye = 10**-18 statcoulomb cm , SI units = C m)
                  (au)            (Debye)         (10**-30 SI)
   Tot        0.728752D+00      0.185230D+01      0.617862D+01
   x          0.479485D+00      0.121873D+01      0.406525D+01
   y         -0.274401D+00     -0.697457D+00     -0.232647D+01
   z         -0.475266D+00     -0.120801D+01     -0.402947D+01

 Dipole polarizability, Alpha (input orientation).
 (esu units = cm**3 , SI units = C**2 m**2 J**-1)
 Alpha(0;0):
               (au)            (10**-24 esu)      (10**-40 SI)
   iso        0.211004D+02      0.312676D+01      0.347898D+01
   aniso      0.133370D+02      0.197633D+01      0.219897D+01
   xx         0.298933D+02      0.442973D+01      0.492874D+01
   yx         0.538530D+00      0.798019D-01      0.887916D-01
   yy         0.165141D+02      0.244714D+01      0.272281D+01
   zx         0.933052D+00      0.138264D+00      0.153839D+00
   zy         0.328728D+00      0.487124D-01      0.541999D-01
   zz         0.168937D+02      0.250339D+01      0.278540D+01

 ----------------------------------------------------------------------

 Dipole orientation:
     6         -5.46634758         -4.11043213         -7.90598362
     1         -5.28676738         -2.38555439         -6.76489523
     1         -5.97412731         -5.76862754         -6.76489523
     9         -3.26495536         -4.55770262         -9.16004345
    17         -8.01359359         -3.59289238        -10.10804544

 Electric dipole moment (dipole orientation):
 (Debye = 10**-18 statcoulomb cm , SI units = C m)
                  (au)            (Debye)         (10**-30 SI)
   Tot        0.728752D+00      0.185230D+01      0.617862D+01
   x          0.000000D+00      0.000000D+00      0.000000D+00
   y          0.000000D+00      0.000000D+00      0.000000D+00
   z          0.728752D+00      0.185230D+01      0.617862D+01

 Dipole polarizability, Alpha (dipole orientation).
 (esu units = cm**3 , SI units = C**2 m**2 J**-1)
 Alpha(0;0):
               (au)            (10**-24 esu)      (10**-40 SI)
   iso        0.211004D+02      0.312676D+01      0.347898D+01
   aniso      0.133370D+02      0.197633D+01      0.219897D+01
   xx         0.250551D+02      0.371278D+01      0.413102D+01
   yx        -0.177388D+01     -0.262862D+00     -0.292473D+00
   yy         0.166847D+02      0.247242D+01      0.275094D+01
   zx         0.607822D+01      0.900700D+00      0.100216D+01
   zy        -0.123495D+01     -0.183001D+00     -0.203616D+00
   zz         0.215614D+02      0.319506D+01      0.355499D+01

 ----------------------------------------------------------------------
 1|1|UNPC-DESKTOP-SI45VP7|Freq|RB3LYP|CC-pVDZ|C1H2Cl1F1|DOG OF ROMAN|07
 -Sep-2025|0||#N Geom=AllCheck Guess=TCheck SCRF=Check GenChk RB3LYP/CC
 -pVDZ Freq||CH2FCl-ccpvdz||0,1|C,-4.5612200819,3.1300290441,0.00617582
 94|H,-4.2306621878,2.0824746908,0.0185879064|H,-4.2306426783,3.6645498
 708,-0.8948229331|F,-4.1026705026,3.7709607785,1.1163127924|Cl,-6.3637
 415891,3.1163047165,-0.0176339212||Version=EM64W-G16RevB.01|State=1-A'
 |HF=-599.3620523|RMSD=1.324e-009|RMSF=1.235e-004|ZeroPoint=0.030708|Th
 ermal=0.0340708|Dipole=0.4794855,-0.2744006,-0.4752659|DipoleDeriv=1.3
 507249,0.1381722,0.2393403,0.2148398,0.5954891,0.2231847,0.3721326,0.2
 23183,0.8532088,-0.0837232,0.0494057,-0.0137007,0.0425562,-0.0676775,-
 0.0231571,-0.0092688,0.0172381,0.034575,-0.0837251,-0.0365665,0.035937
 ,-0.029304,0.0115761,0.0629935,0.0322204,0.0225983,-0.0446765,-0.47915
 99,-0.113137,-0.1959645,-0.2320976,-0.3729489,-0.2558113,-0.4020105,-0
 .2558088,-0.6683419,-0.7041167,-0.0378745,-0.0656121,0.0040056,-0.1664
 388,-0.0072098,0.0069264,-0.0072107,-0.1747653|Polar=29.8933313,0.5385
 299,16.5141177,0.9330517,0.3287276,16.8937267|Quadrupole=0.0040224,0.2
 375004,-0.2415228,-0.8179226,-1.4166947,-0.4148106|PG=CS [SG(C1Cl1F1),
 X(H2)]|NImag=0||0.32070888,-0.02193003,0.60081326,-0.03799056,-0.05055
 125,0.54244053,-0.06529515,0.08351794,0.00037212,0.07631154,0.07820505
 ,-0.30267695,0.01521996,-0.07871327,0.31918879,-0.00499353,0.02402812,
 -0.05457870,0.00681170,-0.00428986,0.05675293,-0.06529819,-0.04143922,
 0.07251863,0.00698562,0.00549235,-0.00709190,0.07631460,-0.04342965,-0
 .13359676,0.12164405,-0.00888847,-0.00939654,0.02166186,0.04525794,0.1
 2607550,0.06523455,0.11283604,-0.22365584,0.00121061,0.00060022,0.0034
 5641,-0.06476581,-0.11578139,0.24986316,-0.07224848,-0.03481624,-0.060
 30349,0.00665328,-0.00159266,0.00217064,0.00665354,0.00267653,-0.00029
 347,0.08772035,-0.02021868,-0.12584757,-0.08909338,-0.01561179,-0.0136
 3652,-0.03977990,0.00198898,0.01197255,0.00276416,0.05023144,0.1239574
 5,-0.03501977,-0.08909369,-0.22872544,-0.00671689,-0.01202134,-0.00939
 846,-0.01687867,-0.02499409,-0.03500780,0.08700431,0.12990342,0.273959
 70,-0.11786705,0.01466755,0.02540330,-0.02465529,-0.00339147,0.0031030
 9,-0.02465558,0.00438366,-0.00138588,-0.02877869,-0.01638994,-0.028388
 98,0.19595661,0.00737332,-0.03869197,0.00278061,0.01969559,0.00652122,
 -0.00162021,-0.01130004,0.00494526,-0.00041904,-0.01649907,0.00355410,
 -0.00379430,0.00073020,0.02367139,0.01276932,0.00278077,-0.03548056,-0
 .00167754,0.00049102,0.00376782,0.01621774,-0.00253042,0.00534407,-0.0
 2857799,-0.00379430,-0.00082800,0.00126847,0.00305294,0.02719666||-0.0
 0008630,-0.00019235,-0.00033316,-0.00000958,0.00002437,0.00006036,-0.0
 0000958,0.00004009,0.00005129,0.00008726,0.00011864,0.00020549,0.00001
 819,0.00000925,0.00001602|||@


 THEREFORE SHALL EVIL COME UPON THEE...
 THOU SHALT NOT KNOW FROM WHENCE IT RISETH...
 AND MISCHIEF SHALL FALL UPON THEE...
 THOU SHALT NOT BE ABLE TO PUT IT OFF...
 AND DESOLATION SHALL COME UPON THEE SUDDENLY...
 WHICH THOU SHALT NOT KNOW...

                                         ISAIAH 47.11
 Job cpu time:       0 days  0 hours  0 minutes 11.0 seconds.
 Elapsed time:       0 days  0 hours  0 minutes  9.7 seconds.
 File lengths (MBytes):  RWF=      6 Int=      0 D2E=      0 Chk=      1 Scr=      1
 Normal termination of Gaussian 16 at Sun Sep 07 16:57:22 2025.
