 Entering Link 1 = C:\G16W\l1.exe PID=     13196.
  
 Copyright (c) 1988-2017, Gaussian, Inc.  All Rights Reserved.
  
 This is part of the Gaussian(R) 16 program.  It is based on
 the Gaussian(R) 09 system (copyright 2009, Gaussian, Inc.),
 the Gaussian(R) 03 system (copyright 2003, Gaussian, Inc.),
 the Gaussian(R) 98 system (copyright 1998, Gaussian, Inc.),
 the Gaussian(R) 94 system (copyright 1995, Gaussian, Inc.),
 the Gaussian 92(TM) system (copyright 1992, Gaussian, Inc.),
 the Gaussian 90(TM) system (copyright 1990, Gaussian, Inc.),
 the Gaussian 88(TM) system (copyright 1988, Gaussian, Inc.),
 the Gaussian 86(TM) system (copyright 1986, Carnegie Mellon
 University), and the Gaussian 82(TM) system (copyright 1983,
 Carnegie Mellon University). Gaussian is a federally registered
 trademark of Gaussian, Inc.
  
 This software contains proprietary and confidential information,
 including trade secrets, belonging to Gaussian, Inc.
  
 This software is provided under written license and may be
 used, copied, transmitted, or stored only in accord with that
 written license.
  
 The following legend is applicable only to US Government
 contracts under FAR:
  
                    RESTRICTED RIGHTS LEGEND
  
 Use, reproduction and disclosure by the US Government is
 subject to restrictions as set forth in subparagraphs (a)
 and (c) of the Commercial Computer Software - Restricted
 Rights clause in FAR 52.227-19.
  
 Gaussian, Inc.
 340 Quinnipiac St., Bldg. 40, Wallingford CT 06492
  
  
 ---------------------------------------------------------------
 Warning -- This program may not be used in any manner that
 competes with the business of Gaussian, Inc. or will provide
 assistance to any competitor of Gaussian, Inc.  The licensee
 of this program is prohibited from giving any competitor of
 Gaussian, Inc. access to this program.  By using this program,
 the user acknowledges that Gaussian, Inc. is engaged in the
 business of creating and licensing software in the field of
 computational chemistry and represents and warrants to the
 licensee that it is not a competitor of Gaussian, Inc. and that
 it will not use this program in any manner prohibited above.
 ---------------------------------------------------------------
  

 Cite this work as:
 Gaussian 16, Revision B.01,
 M. J. Frisch, G. W. Trucks, H. B. Schlegel, G. E. Scuseria, 
 M. A. Robb, J. R. Cheeseman, G. Scalmani, V. Barone, 
 G. A. Petersson, H. Nakatsuji, X. Li, M. Caricato, A. V. Marenich, 
 J. Bloino, B. G. Janesko, R. Gomperts, B. Mennucci, H. P. Hratchian, 
 J. V. Ortiz, A. F. Izmaylov, J. L. Sonnenberg, D. Williams-Young, 
 F. Ding, F. Lipparini, F. Egidi, J. Goings, B. Peng, A. Petrone, 
 T. Henderson, D. Ranasinghe, V. G. Zakrzewski, J. Gao, N. Rega, 
 G. Zheng, W. Liang, M. Hada, M. Ehara, K. Toyota, R. Fukuda, 
 J. Hasegawa, M. Ishida, T. Nakajima, Y. Honda, O. Kitao, H. Nakai, 
 T. Vreven, K. Throssell, J. A. Montgomery, Jr., J. E. Peralta, 
 F. Ogliaro, M. J. Bearpark, J. J. Heyd, E. N. Brothers, K. N. Kudin, 
 V. N. Staroverov, T. A. Keith, R. Kobayashi, J. Normand, 
 K. Raghavachari, A. P. Rendell, J. C. Burant, S. S. Iyengar, 
 J. Tomasi, M. Cossi, J. M. Millam, M. Klene, C. Adamo, R. Cammi, 
 J. W. Ochterski, R. L. Martin, K. Morokuma, O. Farkas, 
 J. B. Foresman, and D. J. Fox, Gaussian, Inc., Wallingford CT, 2016.
 
 ******************************************
 Gaussian 16:  EM64W-G16RevB.01 16-Dec-2017
                07-Sep-2025 
 ******************************************
 %chk=C:\G16W\Scratch\CH2FCl-sto3g.chk
 -------------------------
 # HF/STO-3G Opt SCF=Tight
 -------------------------
 1/18=20,19=15,38=1/1,3;
 2/9=110,12=2,17=6,18=5,40=1/2;
 3/6=3,11=9,25=1,30=1,71=1/1,2,3;
 4//1;
 5/5=2,32=2,38=5/2;
 6/7=2,8=2,9=2,10=2,28=1/1;
 7//1,2,3,16;
 1/18=20,19=15/3(2);
 2/9=110/2;
 99//99;
 2/9=110/2;
 3/6=3,11=9,25=1,30=1,71=1/1,2,3;
 4/5=5,16=3,69=1/1;
 5/5=2,32=2,38=5/2;
 7//1,2,3,16;
 1/18=20,19=15/3(-5);
 2/9=110/2;
 6/7=2,8=2,9=2,10=2,19=2,28=1/1;
 99/9=1/99;
 ------------
 CH2FCl-sto3g
 ------------
 Symbolic Z-matrix:
 Charge =  0 Multiplicity = 1
 C                    -4.57845   3.12646   0. 
 H                    -4.2218    2.11765   0. 
 H                    -4.22178   3.63086  -0.87365 
 F                    -4.12845   3.76285   1.10227 
 Cl                   -6.33845   3.12649   0. 
 

 GradGradGradGradGradGradGradGradGradGradGradGradGradGradGradGradGradGrad
 Berny optimization.
 Initialization pass.
                           ----------------------------
                           !    Initial Parameters    !
                           ! (Angstroms and Degrees)  !
 --------------------------                            --------------------------
 ! Name  Definition              Value          Derivative Info.                !
 --------------------------------------------------------------------------------
 ! R1    R(1,2)                  1.07           estimate D2E/DX2                !
 ! R2    R(1,3)                  1.07           estimate D2E/DX2                !
 ! R3    R(1,4)                  1.35           estimate D2E/DX2                !
 ! R4    R(1,5)                  1.76           estimate D2E/DX2                !
 ! A1    A(2,1,3)              109.4712         estimate D2E/DX2                !
 ! A2    A(2,1,4)              109.4712         estimate D2E/DX2                !
 ! A3    A(2,1,5)              109.4712         estimate D2E/DX2                !
 ! A4    A(3,1,4)              109.4713         estimate D2E/DX2                !
 ! A5    A(3,1,5)              109.4712         estimate D2E/DX2                !
 ! A6    A(4,1,5)              109.4712         estimate D2E/DX2                !
 ! D1    D(2,1,4,3)            120.0            estimate D2E/DX2                !
 ! D2    D(2,1,5,3)           -120.0            estimate D2E/DX2                !
 ! D3    D(2,1,5,4)            120.0            estimate D2E/DX2                !
 ! D4    D(3,1,5,4)           -120.0            estimate D2E/DX2                !
 --------------------------------------------------------------------------------
 Trust Radius=3.00D-01 FncErr=1.00D-07 GrdErr=1.00D-07 EigMax=2.50D+02 EigMin=1.00D-04
 Number of steps in this run=     24 maximum allowed number of steps=    100.
 GradGradGradGradGradGradGradGradGradGradGradGradGradGradGradGradGradGrad

                          Input orientation:                          
 ---------------------------------------------------------------------
 Center     Atomic      Atomic             Coordinates (Angstroms)
 Number     Number       Type             X           Y           Z
 ---------------------------------------------------------------------
      1          6           0       -4.578454    3.126464    0.000000
      2          1           0       -4.221800    2.117654    0.000000
      3          1           0       -4.221782    3.630862   -0.873652
      4          9           0       -4.128447    3.762854    1.102271
      5         17           0       -6.338454    3.126485    0.000000
 ---------------------------------------------------------------------
                    Distance matrix (angstroms):
                    1          2          3          4          5
     1  C    0.000000
     2  H    1.070000   0.000000
     3  H    1.070000   1.747302   0.000000
     4  F    1.350000   1.982523   1.982524   0.000000
     5  Cl   1.760000   2.344774   2.344774   2.550314   0.000000
 Stoichiometry    CH2ClF
 Framework group  CS[SG(CClF),X(H2)]
 Deg. of freedom     6
 Full point group                 CS      NOp   2
 Largest Abelian subgroup         CS      NOp   2
 Largest concise Abelian subgroup CS      NOp   2
                         Standard orientation:                         
 ---------------------------------------------------------------------
 Center     Atomic      Atomic             Coordinates (Angstroms)
 Number     Number       Type             X           Y           Z
 ---------------------------------------------------------------------
      1          6           0       -0.507574   -0.619857    0.000000
      2          1           0       -1.093406   -0.815903    0.873651
      3          1           0       -1.093406   -0.815903   -0.873651
      4          9           0        0.581362   -1.417803    0.000000
      5         17           0        0.000000    1.065363    0.000000
 ---------------------------------------------------------------------
 Rotational constants (GHZ):          42.2911673           5.8258423           5.2852396
 Standard basis: STO-3G (5D, 7F)
 There are    16 symmetry adapted cartesian basis functions of A'  symmetry.
 There are     5 symmetry adapted cartesian basis functions of A"  symmetry.
 There are    16 symmetry adapted basis functions of A'  symmetry.
 There are     5 symmetry adapted basis functions of A"  symmetry.
    21 basis functions,    63 primitive gaussians,    21 cartesian basis functions
    17 alpha electrons       17 beta electrons
       nuclear repulsion energy       102.2974142479 Hartrees.
 NAtoms=    5 NActive=    5 NUniq=    4 SFac= 1.56D+00 NAtFMM=   60 NAOKFM=F Big=F
 Integral buffers will be    131072 words long.
 Raffenetti 1 integral format.
 Two-electron integral symmetry is turned on.
 One-electron integrals computed using PRISM.
 NBasis=    21 RedAO= T EigKep=  2.39D-01  NBF=    16     5
 NBsUse=    21 1.00D-06 EigRej= -1.00D+00 NBFU=    16     5
 ExpMin= 1.69D-01 ExpMax= 6.01D+02 ExpMxC= 6.01D+02 IAcc=3 IRadAn=         5 AccDes= 0.00D+00
 Harris functional with IExCor=  205 and IRadAn=       5 diagonalized for initial guess.
 HarFok:  IExCor=  205 AccDes= 0.00D+00 IRadAn=         5 IDoV= 1 UseB2=F ITyADJ=14
 ICtDFT=  3500011 ScaDFX=  1.000000  1.000000  1.000000  1.000000
 FoFCou: FMM=F IPFlag=           0 FMFlag=      100000 FMFlg1=           0
         NFxFlg=           0 DoJE=T BraDBF=F KetDBF=T FulRan=T
         wScrn=  0.000000 ICntrl=       500 IOpCl=  0 I1Cent=   200000004 NGrid=           0
         NMat0=    1 NMatS0=      1 NMatT0=    0 NMatD0=    1 NMtDS0=    0 NMtDT0=    0
 Petite list used in FoFCou.
 Initial guess orbital symmetries:
       Occupied  (A') (A') (A') (A') (A') (A") (A') (A') (A') (A')
                 (A") (A') (A') (A") (A') (A') (A")
       Virtual   (A') (A') (A") (A')
 The electronic state of the initial guess is 1-A'.
 Keep R1 ints in memory in symmetry-blocked form, NReq=834668.
 Requested convergence on RMS density matrix=1.00D-08 within 128 cycles.
 Requested convergence on MAX density matrix=1.00D-06.
 Requested convergence on             energy=1.00D-06.
 No special actions if energy rises.
 SCF Done:  E(RHF) =  -591.167055547     A.U. after   10 cycles
            NFock= 10  Conv=0.59D-08     -V/T= 2.0164

 **********************************************************************

            Population analysis using the SCF Density.

 **********************************************************************

 Orbital symmetries:
       Occupied  (A') (A') (A') (A') (A') (A') (A") (A') (A') (A')
                 (A") (A') (A') (A") (A') (A') (A")
       Virtual   (A') (A') (A") (A')
 The electronic state is 1-A'.
 Alpha  occ. eigenvalues -- -103.70475 -25.98826 -11.20685 -10.38801  -7.83230
 Alpha  occ. eigenvalues --   -7.82643  -7.82635  -1.54651  -1.07748  -0.87152
 Alpha  occ. eigenvalues --   -0.68394  -0.62764  -0.58081  -0.47743  -0.44418
 Alpha  occ. eigenvalues --   -0.40383  -0.39251
 Alpha virt. eigenvalues --    0.36707   0.57274   0.65664   0.68522
          Condensed to atoms (all electrons):
               1          2          3          4          5
     1  C    4.737180   0.379127   0.379127   0.222851   0.219689
     2  H    0.379127   0.582769  -0.026187  -0.015612  -0.026075
     3  H    0.379127  -0.026187   0.582769  -0.015612  -0.026075
     4  F    0.222851  -0.015612  -0.015612   8.945823  -0.015933
     5  Cl   0.219689  -0.026075  -0.026075  -0.015933  17.000859
 Mulliken charges:
               1
     1  C    0.062027
     2  H    0.105978
     3  H    0.105978
     4  F   -0.121518
     5  Cl  -0.152464
 Sum of Mulliken charges =   0.00000
 Mulliken charges with hydrogens summed into heavy atoms:
               1
     1  C    0.273982
     4  F   -0.121518
     5  Cl  -0.152464
 Electronic spatial extent (au):  <R**2>=            226.5762
 Charge=              0.0000 electrons
 Dipole moment (field-independent basis, Debye):
    X=             -1.4852    Y=             -1.4633    Z=              0.0000  Tot=              2.0850
 Quadrupole moment (field-independent basis, Debye-Ang):
   XX=            -21.4656   YY=            -23.9548   ZZ=            -21.4371
   XY=              1.4404   XZ=              0.0000   YZ=              0.0000
 Traceless Quadrupole moment (field-independent basis, Debye-Ang):
   XX=              0.8203   YY=             -1.6690   ZZ=              0.8487
   XY=              1.4404   XZ=              0.0000   YZ=              0.0000
 Octapole moment (field-independent basis, Debye-Ang**2):
  XXX=              4.5391  YYY=             -6.8570  ZZZ=              0.0000  XYY=              0.8339
  XXY=             -3.0775  XXZ=              0.0000  XZZ=              0.9597  YZZ=             -3.4926
  YYZ=              0.0000  XYZ=              0.0000
 Hexadecapole moment (field-independent basis, Debye-Ang**3):
 XXXX=            -41.4099 YYYY=           -159.8166 ZZZZ=            -22.4038 XXXY=              1.6007
 XXXZ=              0.0000 YYYX=              3.7702 YYYZ=              0.0000 ZZZX=              0.0000
 ZZZY=              0.0000 XXYY=            -33.6356 XXZZ=             -9.7997 YYZZ=            -30.4294
 XXYZ=              0.0000 YYXZ=              0.0000 ZZXY=              1.0831
 N-N= 1.022974142479D+02 E-N=-1.604809309224D+03  KE= 5.816379915571D+02
 Symmetry A'   KE= 5.301572640622D+02
 Symmetry A"   KE= 5.148072749489D+01
 Calling FoFJK, ICntrl=      2127 FMM=F ISym2X=1 I1Cent= 0 IOpClX= 0 NMat=1 NMatS=1 NMatT=0.
 ***** Axes restored to original set *****
 -------------------------------------------------------------------
 Center     Atomic                   Forces (Hartrees/Bohr)
 Number     Number              X              Y              Z
 -------------------------------------------------------------------
      1        6           0.019467946    0.005340244    0.009249997
      2        1           0.005112125   -0.029634304   -0.003552941
      3        1           0.005112635    0.011740139   -0.027440468
      4        9           0.012455179    0.015304834    0.026509037
      5       17          -0.042147885   -0.002750913   -0.004765625
 -------------------------------------------------------------------
 Cartesian Forces:  Max     0.042147885 RMS     0.018665121

 GradGradGradGradGradGradGradGradGradGradGradGradGradGradGradGradGradGrad
 Berny optimization.
 FormGI is forming the generalized inverse of G from B-inverse, IUseBI=4.
 Internal  Forces:  Max     0.042147852 RMS     0.018533502
 Search for a local minimum.
 Step number   1 out of a maximum of   24
 All quantities printed in internal units (Hartrees-Bohrs-Radians)
 Mixed Optimization -- RFO/linear search
 Second derivative matrix not updated -- first step.
 The second derivative matrix:
                          R1        R2        R3        R4        A1
           R1           0.37230
           R2           0.00000   0.37230
           R3           0.00000   0.00000   0.55021
           R4           0.00000   0.00000   0.00000   0.29539
           A1           0.00000   0.00000   0.00000   0.00000   0.16000
           A2           0.00000   0.00000   0.00000   0.00000   0.00000
           A3           0.00000   0.00000   0.00000   0.00000   0.00000
           A4           0.00000   0.00000   0.00000   0.00000   0.00000
           A5           0.00000   0.00000   0.00000   0.00000   0.00000
           A6           0.00000   0.00000   0.00000   0.00000   0.00000
           D1           0.00000   0.00000   0.00000   0.00000   0.00000
           D2           0.00000   0.00000   0.00000   0.00000   0.00000
           D3           0.00000   0.00000   0.00000   0.00000   0.00000
           D4           0.00000   0.00000   0.00000   0.00000   0.00000
                          A2        A3        A4        A5        A6
           A2           0.16000
           A3           0.00000   0.16000
           A4           0.00000   0.00000   0.16000
           A5           0.00000   0.00000   0.00000   0.16000
           A6           0.00000   0.00000   0.00000   0.00000   0.25000
           D1           0.00000   0.00000   0.00000   0.00000   0.00000
           D2           0.00000   0.00000   0.00000   0.00000   0.00000
           D3           0.00000   0.00000   0.00000   0.00000   0.00000
           D4           0.00000   0.00000   0.00000   0.00000   0.00000
                          D1        D2        D3        D4
           D1           0.02089
           D2           0.00000   0.00238
           D3           0.00000   0.00000   0.00238
           D4           0.00000   0.00000   0.00000   0.00238
 ITU=  0
     Eigenvalues ---    0.05673   0.05720   0.09376   0.16000   0.21992
     Eigenvalues ---    0.29539   0.37230   0.37230   0.55021
 RFO step:  Lambda=-1.37171772D-02 EMin= 5.67298782D-02
 Linear search not attempted -- first point.
 Iteration  1 RMS(Cart)=  0.05347161 RMS(Int)=  0.00193453
 Iteration  2 RMS(Cart)=  0.00160619 RMS(Int)=  0.00100146
 Iteration  3 RMS(Cart)=  0.00000388 RMS(Int)=  0.00100145
 Iteration  4 RMS(Cart)=  0.00000001 RMS(Int)=  0.00100145
 ClnCor:  largest displacement from symmetrization is 4.89D-14 for atom     3.
 Variable       Old X    -DE/DX   Delta X   Delta X   Delta X     New X
                                 (Linear)    (Quad)   (Total)
    R1        2.02201   0.02964   0.00000   0.07679   0.07679   2.09880
    R2        2.02201   0.02964   0.00000   0.07679   0.07679   2.09880
    R3        2.55113   0.03301   0.00000   0.05854   0.05854   2.60967
    R4        3.32592   0.04215   0.00000   0.13635   0.13635   3.46227
    A1        1.91063   0.00128   0.00000  -0.00950  -0.01198   1.89865
    A2        1.91063   0.00145   0.00000   0.03021   0.03070   1.94134
    A3        1.91063  -0.00580   0.00000  -0.04388  -0.04496   1.86568
    A4        1.91063   0.00145   0.00000   0.03021   0.03070   1.94134
    A5        1.91063  -0.00580   0.00000  -0.04388  -0.04496   1.86568
    A6        1.91063   0.00742   0.00000   0.03683   0.03710   1.94773
    D1        2.09440   0.00334   0.00000   0.02536   0.02505   2.11944
    D2       -2.09440   0.00554   0.00000   0.06538   0.06357  -2.03083
    D3        2.09439   0.00277   0.00000   0.03269   0.03178   2.12618
    D4       -2.09439  -0.00277   0.00000  -0.03269  -0.03178  -2.12618
         Item               Value     Threshold  Converged?
 Maximum Force            0.042148     0.000450     NO 
 RMS     Force            0.018534     0.000300     NO 
 Maximum Displacement     0.102588     0.001800     NO 
 RMS     Displacement     0.053575     0.001200     NO 
 Predicted change in Energy=-7.158129D-03
 GradGradGradGradGradGradGradGradGradGradGradGradGradGradGradGradGradGrad

                          Input orientation:                          
 ---------------------------------------------------------------------
 Center     Atomic      Atomic             Coordinates (Angstroms)
 Number     Number       Type             X           Y           Z
 ---------------------------------------------------------------------
      1          6           0       -4.561281    3.138398    0.020671
      2          1           0       -4.223214    2.080780   -0.005223
      3          1           0       -4.223195    3.644776   -0.908196
      4          9           0       -4.088505    3.787157    1.144366
      5         17           0       -6.392742    3.113208   -0.022998
 ---------------------------------------------------------------------
                    Distance matrix (angstroms):
                    1          2          3          4          5
     1  C    0.000000
     2  H    1.110637   0.000000
     3  H    1.110637   1.805947   0.000000
     4  F    1.380977   2.061898   2.061898   0.000000
     5  Cl   1.832155   2.402722   2.402722   2.669542   0.000000
 Stoichiometry    CH2ClF
 Framework group  CS[SG(CClF),X(H2)]
 Deg. of freedom     6
 Full point group                 CS      NOp   2
 Largest Abelian subgroup         CS      NOp   2
 Largest concise Abelian subgroup CS      NOp   2
                         Standard orientation:                         
 ---------------------------------------------------------------------
 Center     Atomic      Atomic             Coordinates (Angstroms)
 Number     Number       Type             X           Y           Z
 ---------------------------------------------------------------------
      1          6           0        0.000000   -0.821994    0.000000
      2          1           0       -0.399275   -1.330652    0.902974
      3          1           0       -0.399275   -1.330652   -0.902974
      4          9           0        1.380954   -0.814077    0.000000
      5         17           0       -0.684120    0.877645    0.000000
 ---------------------------------------------------------------------
 Rotational constants (GHZ):          41.1464957           5.3205371           4.8602581
 Standard basis: STO-3G (5D, 7F)
 There are    16 symmetry adapted cartesian basis functions of A'  symmetry.
 There are     5 symmetry adapted cartesian basis functions of A"  symmetry.
 There are    16 symmetry adapted basis functions of A'  symmetry.
 There are     5 symmetry adapted basis functions of A"  symmetry.
    21 basis functions,    63 primitive gaussians,    21 cartesian basis functions
    17 alpha electrons       17 beta electrons
       nuclear repulsion energy        98.5999478045 Hartrees.
 NAtoms=    5 NActive=    5 NUniq=    4 SFac= 1.56D+00 NAtFMM=   60 NAOKFM=F Big=F
 Integral buffers will be    131072 words long.
 Raffenetti 1 integral format.
 Two-electron integral symmetry is turned on.
 One-electron integrals computed using PRISM.
 NBasis=    21 RedAO= T EigKep=  2.65D-01  NBF=    16     5
 NBsUse=    21 1.00D-06 EigRej= -1.00D+00 NBFU=    16     5
 Initial guess from the checkpoint file:  "C:\G16W\Scratch\CH2FCl-sto3g.chk"
 B after Tr=     0.000000    0.000000    0.000000
         Rot=    0.946624    0.000000    0.000000   -0.322339 Ang= -37.61 deg.
 Initial guess orbital symmetries:
       Occupied  (A') (A') (A') (A') (A') (A') (A") (A') (A') (A')
                 (A") (A') (A') (A") (A') (A') (A")
       Virtual   (A') (A') (A") (A')
 ExpMin= 1.69D-01 ExpMax= 6.01D+02 ExpMxC= 6.01D+02 IAcc=3 IRadAn=         5 AccDes= 0.00D+00
 Harris functional with IExCor=  205 and IRadAn=       5 diagonalized for initial guess.
 HarFok:  IExCor=  205 AccDes= 0.00D+00 IRadAn=         5 IDoV= 1 UseB2=F ITyADJ=14
 ICtDFT=  3500011 ScaDFX=  1.000000  1.000000  1.000000  1.000000
 FoFCou: FMM=F IPFlag=           0 FMFlag=      100000 FMFlg1=           0
         NFxFlg=           0 DoJE=T BraDBF=F KetDBF=T FulRan=T
         wScrn=  0.000000 ICntrl=       500 IOpCl=  0 I1Cent=   200000004 NGrid=           0
         NMat0=    1 NMatS0=      1 NMatT0=    0 NMatD0=    1 NMtDS0=    0 NMtDT0=    0
 Petite list used in FoFCou.
 Keep R1 ints in memory in symmetry-blocked form, NReq=834622.
 Requested convergence on RMS density matrix=1.00D-08 within 128 cycles.
 Requested convergence on MAX density matrix=1.00D-06.
 Requested convergence on             energy=1.00D-06.
 No special actions if energy rises.
 SCF Done:  E(RHF) =  -591.171857875     A.U. after   10 cycles
            NFock= 10  Conv=0.20D-08     -V/T= 2.0166
 Calling FoFJK, ICntrl=      2127 FMM=F ISym2X=1 I1Cent= 0 IOpClX= 0 NMat=1 NMatS=1 NMatT=0.
 ***** Axes restored to original set *****
 -------------------------------------------------------------------
 Center     Atomic                   Forces (Hartrees/Bohr)
 Number     Number              X              Y              Z
 -------------------------------------------------------------------
      1        6           0.008809761   -0.000076557   -0.000132412
      2        1          -0.003524200    0.007687121    0.002668283
      3        1          -0.003524313   -0.001532700    0.007991345
      4        9          -0.007864276   -0.007171610   -0.012421770
      5       17           0.006103027    0.001093746    0.001894555
 -------------------------------------------------------------------
 Cartesian Forces:  Max     0.012421770 RMS     0.006025004

 GradGradGradGradGradGradGradGradGradGradGradGradGradGradGradGradGradGrad
 Berny optimization.
 Using GEDIIS/GDIIS optimizer.
 FormGI is forming the generalized inverse of G from B-inverse, IUseBI=4.
 Internal  Forces:  Max     0.016168971 RMS     0.005838320
 Search for a local minimum.
 Step number   2 out of a maximum of   24
 All quantities printed in internal units (Hartrees-Bohrs-Radians)
 Mixed Optimization -- RFO/linear search
 Update second derivatives using D2CorX and points    1    2
 DE= -4.80D-03 DEPred=-7.16D-03 R= 6.71D-01
 TightC=F SS=  1.41D+00  RLast= 2.19D-01 DXNew= 5.0454D-01 6.5692D-01
 Trust test= 6.71D-01 RLast= 2.19D-01 DXMaxT set to 5.05D-01
 The second derivative matrix:
                          R1        R2        R3        R4        A1
           R1           0.39450
           R2           0.02219   0.39450
           R3           0.03889   0.03889   0.61196
           R4           0.01936   0.01936   0.03943   0.30758
           A1           0.00456   0.00456   0.00520   0.00637   0.15972
           A2          -0.00896  -0.00896  -0.00981  -0.01287   0.00073
           A3           0.00067   0.00067  -0.00171   0.00306  -0.00112
           A4          -0.00896  -0.00896  -0.00981  -0.01287   0.00073
           A5           0.00067   0.00067  -0.00171   0.00306  -0.00112
           A6           0.00566   0.00566   0.01063   0.00433   0.00147
           D1           0.00110   0.00110   0.00161   0.00124   0.00009
           D2           0.01689   0.01689   0.02186   0.02137   0.00010
           D3           0.00844   0.00844   0.01093   0.01068   0.00005
           D4          -0.00844  -0.00844  -0.01093  -0.01068  -0.00005
                          A2        A3        A4        A5        A6
           A2           0.15820
           A3           0.00238   0.15872
           A4          -0.00180   0.00238   0.15820
           A5           0.00238  -0.00128   0.00238   0.15872
           A6          -0.00294   0.00049  -0.00294   0.00049   0.25137
           D1          -0.00015  -0.00011  -0.00015  -0.00011   0.00032
           D2           0.00030  -0.00298   0.00030  -0.00298   0.00517
           D3           0.00015  -0.00149   0.00015  -0.00149   0.00258
           D4          -0.00015   0.00149  -0.00015   0.00149  -0.00258
                          D1        D2        D3        D4
           D1           0.02092
           D2           0.00045   0.00588
           D3           0.00023   0.00175   0.00325
           D4          -0.00023  -0.00175  -0.00088   0.00325
 ITU=  1  0
 Use linear search instead of GDIIS.
     Eigenvalues ---    0.05583   0.06016   0.09338   0.16000   0.22247
     Eigenvalues ---    0.29947   0.37230   0.40582   0.63440
 RFO step:  Lambda=-2.64460169D-04 EMin= 5.58337558D-02
 Quartic linear search produced a step of -0.22071.
 Iteration  1 RMS(Cart)=  0.01481879 RMS(Int)=  0.00024847
 Iteration  2 RMS(Cart)=  0.00013274 RMS(Int)=  0.00020330
 Iteration  3 RMS(Cart)=  0.00000001 RMS(Int)=  0.00020330
 ClnCor:  largest displacement from symmetrization is 1.09D-13 for atom     3.
 Variable       Old X    -DE/DX   Delta X   Delta X   Delta X     New X
                                 (Linear)    (Quad)   (Total)
    R1        2.09880  -0.00846  -0.01695  -0.00009  -0.01704   2.08176
    R2        2.09880  -0.00846  -0.01695  -0.00009  -0.01704   2.08176
    R3        2.60967  -0.01617  -0.01292  -0.00928  -0.02220   2.58747
    R4        3.46227  -0.00616  -0.03009   0.01463  -0.01547   3.44680
    A1        1.89865   0.00111   0.00264   0.02200   0.02516   1.92381
    A2        1.94134   0.00066  -0.00678   0.00240  -0.00454   1.93680
    A3        1.86568   0.00097   0.00992  -0.00686   0.00315   1.86883
    A4        1.94134   0.00066  -0.00678   0.00240  -0.00454   1.93680
    A5        1.86568   0.00097   0.00992  -0.00686   0.00315   1.86883
    A6        1.94773  -0.00425  -0.00819  -0.01295  -0.02134   1.92639
    D1        2.11944   0.00233  -0.00553   0.03143   0.02585   2.14530
    D2       -2.03083  -0.00222  -0.01403  -0.01868  -0.03234  -2.06317
    D3        2.12618  -0.00111  -0.00701  -0.00934  -0.01617   2.11001
    D4       -2.12618   0.00111   0.00701   0.00934   0.01617  -2.11001
         Item               Value     Threshold  Converged?
 Maximum Force            0.016169     0.000450     NO 
 RMS     Force            0.005838     0.000300     NO 
 Maximum Displacement     0.027647     0.001800     NO 
 RMS     Displacement     0.014877     0.001200     NO 
 Predicted change in Energy=-4.783640D-04
 GradGradGradGradGradGradGradGradGradGradGradGradGradGradGradGradGradGrad

                          Input orientation:                          
 ---------------------------------------------------------------------
 Center     Atomic      Atomic             Coordinates (Angstroms)
 Number     Number       Type             X           Y           Z
 ---------------------------------------------------------------------
      1          6           0       -4.557032    3.133889    0.012862
      2          1           0       -4.224037    2.083866    0.001456
      3          1           0       -4.224017    3.649017   -0.902184
      4          9           0       -4.103135    3.779788    1.131602
      5         17           0       -6.380715    3.117758   -0.015116
 ---------------------------------------------------------------------
                    Distance matrix (angstroms):
                    1          2          3          4          5
     1  C    0.000000
     2  H    1.101619   0.000000
     3  H    1.101619   1.807280   0.000000
     4  F    1.369228   2.041568   2.041568   0.000000
     5  Cl   1.823969   2.391751   2.391751   2.634505   0.000000
 Stoichiometry    CH2ClF
 Framework group  CS[SG(CClF),X(H2)]
 Deg. of freedom     6
 Full point group                 CS      NOp   2
 Largest Abelian subgroup         CS      NOp   2
 Largest concise Abelian subgroup CS      NOp   2
                         Standard orientation:                         
 ---------------------------------------------------------------------
 Center     Atomic      Atomic             Coordinates (Angstroms)
 Number     Number       Type             X           Y           Z
 ---------------------------------------------------------------------
      1          6           0        0.000000   -0.826304    0.000000
      2          1           0       -0.381185   -1.327999    0.903640
      3          1           0       -0.381185   -1.327999   -0.903640
      4          9           0        1.368754   -0.790275    0.000000
      5         17           0       -0.679789    0.866253    0.000000
 ---------------------------------------------------------------------
 Rotational constants (GHZ):          40.9850405           5.4504277           4.9662933
 Standard basis: STO-3G (5D, 7F)
 There are    16 symmetry adapted cartesian basis functions of A'  symmetry.
 There are     5 symmetry adapted cartesian basis functions of A"  symmetry.
 There are    16 symmetry adapted basis functions of A'  symmetry.
 There are     5 symmetry adapted basis functions of A"  symmetry.
    21 basis functions,    63 primitive gaussians,    21 cartesian basis functions
    17 alpha electrons       17 beta electrons
       nuclear repulsion energy        99.4399956855 Hartrees.
 NAtoms=    5 NActive=    5 NUniq=    4 SFac= 1.56D+00 NAtFMM=   60 NAOKFM=F Big=F
 Integral buffers will be    131072 words long.
 Raffenetti 1 integral format.
 Two-electron integral symmetry is turned on.
 One-electron integrals computed using PRISM.
 NBasis=    21 RedAO= T EigKep=  2.60D-01  NBF=    16     5
 NBsUse=    21 1.00D-06 EigRej= -1.00D+00 NBFU=    16     5
 Initial guess from the checkpoint file:  "C:\G16W\Scratch\CH2FCl-sto3g.chk"
 B after Tr=     0.000000    0.000000    0.000000
         Rot=    0.999995    0.000000    0.000000   -0.003107 Ang=  -0.36 deg.
 Initial guess orbital symmetries:
       Occupied  (A') (A') (A') (A') (A') (A') (A") (A') (A') (A')
                 (A") (A') (A') (A") (A') (A') (A")
       Virtual   (A') (A') (A") (A')
 ExpMin= 1.69D-01 ExpMax= 6.01D+02 ExpMxC= 6.01D+02 IAcc=3 IRadAn=         5 AccDes= 0.00D+00
 Harris functional with IExCor=  205 and IRadAn=       5 diagonalized for initial guess.
 HarFok:  IExCor=  205 AccDes= 0.00D+00 IRadAn=         5 IDoV= 1 UseB2=F ITyADJ=14
 ICtDFT=  3500011 ScaDFX=  1.000000  1.000000  1.000000  1.000000
 FoFCou: FMM=F IPFlag=           0 FMFlag=      100000 FMFlg1=           0
         NFxFlg=           0 DoJE=T BraDBF=F KetDBF=T FulRan=T
         wScrn=  0.000000 ICntrl=       500 IOpCl=  0 I1Cent=   200000004 NGrid=           0
         NMat0=    1 NMatS0=      1 NMatT0=    0 NMatD0=    1 NMtDS0=    0 NMtDT0=    0
 Petite list used in FoFCou.
 Keep R1 ints in memory in symmetry-blocked form, NReq=834654.
 Requested convergence on RMS density matrix=1.00D-08 within 128 cycles.
 Requested convergence on MAX density matrix=1.00D-06.
 Requested convergence on             energy=1.00D-06.
 No special actions if energy rises.
 SCF Done:  E(RHF) =  -591.172381158     A.U. after    9 cycles
            NFock=  9  Conv=0.63D-08     -V/T= 2.0166
 Calling FoFJK, ICntrl=      2127 FMM=F ISym2X=1 I1Cent= 0 IOpClX= 0 NMat=1 NMatS=1 NMatT=0.
 ***** Axes restored to original set *****
 -------------------------------------------------------------------
 Center     Atomic                   Forces (Hartrees/Bohr)
 Number     Number              X              Y              Z
 -------------------------------------------------------------------
      1        6           0.002266796    0.000936079    0.001621386
      2        1          -0.000672617    0.000542964   -0.000544669
      3        1          -0.000672633   -0.000743166    0.000197878
      4        9          -0.000475481   -0.000533667   -0.000924349
      5       17          -0.000446066   -0.000202209   -0.000350246
 -------------------------------------------------------------------
 Cartesian Forces:  Max     0.002266796 RMS     0.000911377

 GradGradGradGradGradGradGradGradGradGradGradGradGradGradGradGradGradGrad
 Berny optimization.
 Using GEDIIS/GDIIS optimizer.
 FormGI is forming the generalized inverse of G from B-inverse, IUseBI=4.
 Internal  Forces:  Max     0.001164612 RMS     0.000548334
 Search for a local minimum.
 Step number   3 out of a maximum of   24
 All quantities printed in internal units (Hartrees-Bohrs-Radians)
 Mixed Optimization -- En-DIIS/RFO-DIIS
 Update second derivatives using D2CorX and points    1    2    3
 DE= -5.23D-04 DEPred=-4.78D-04 R= 1.09D+00
 TightC=F SS=  1.41D+00  RLast= 6.86D-02 DXNew= 8.4853D-01 2.0566D-01
 Trust test= 1.09D+00 RLast= 6.86D-02 DXMaxT set to 5.05D-01
 The second derivative matrix:
                          R1        R2        R3        R4        A1
           R1           0.38068
           R2           0.00838   0.38068
           R3           0.01757   0.01757   0.58279
           R4           0.01260   0.01260   0.03105   0.30352
           A1           0.02397   0.02397   0.04402   0.01662   0.14427
           A2          -0.01039  -0.01039  -0.01314  -0.01387   0.00080
           A3          -0.00564  -0.00564  -0.01618  -0.00067   0.00093
           A4          -0.01039  -0.01039  -0.01314  -0.01387   0.00080
           A5          -0.00564  -0.00564  -0.01618  -0.00067   0.00093
           A6          -0.00838  -0.00838  -0.01371  -0.00218   0.01893
           D1          -0.00897  -0.00897  -0.02143  -0.00533   0.00206
           D2           0.02336   0.02336   0.03813   0.02574   0.00087
           D3           0.01168   0.01168   0.01907   0.01287   0.00044
           D4          -0.01168  -0.01168  -0.01907  -0.01287  -0.00044
                          A2        A3        A4        A5        A6
           A2           0.15833
           A3           0.00281   0.15972
           A4          -0.00167   0.00281   0.15833
           A5           0.00281  -0.00028   0.00281   0.15972
           A6          -0.00391  -0.00449  -0.00391  -0.00449   0.23720
           D1           0.00062   0.00209   0.00062   0.00209  -0.00704
           D2          -0.00052  -0.00556  -0.00052  -0.00556   0.00948
           D3          -0.00026  -0.00278  -0.00026  -0.00278   0.00474
           D4           0.00026   0.00278   0.00026   0.00278  -0.00474
                          D1        D2        D3        D4
           D1           0.02520
           D2          -0.00437   0.01066
           D3          -0.00218   0.00414   0.00445
           D4           0.00218  -0.00414  -0.00207   0.00445
 ITU=  1  1  0
 Use linear search instead of GDIIS.
     Eigenvalues ---    0.05759   0.06256   0.09081   0.16000   0.22565
     Eigenvalues ---    0.29857   0.37230   0.38908   0.59156
 RFO step:  Lambda=-2.48669700D-05 EMin= 5.75918556D-02
 Quartic linear search produced a step of  0.00706.
 Iteration  1 RMS(Cart)=  0.00299619 RMS(Int)=  0.00001713
 Iteration  2 RMS(Cart)=  0.00001058 RMS(Int)=  0.00001346
 Iteration  3 RMS(Cart)=  0.00000000 RMS(Int)=  0.00001346
 ClnCor:  largest displacement from symmetrization is 5.99D-14 for atom     3.
 Variable       Old X    -DE/DX   Delta X   Delta X   Delta X     New X
                                 (Linear)    (Quad)   (Total)
    R1        2.08176  -0.00072  -0.00012  -0.00198  -0.00210   2.07965
    R2        2.08176  -0.00072  -0.00012  -0.00198  -0.00210   2.07965
    R3        2.58747  -0.00116  -0.00016  -0.00227  -0.00243   2.58504
    R4        3.44680   0.00045  -0.00011   0.00164   0.00153   3.44833
    A1        1.92381  -0.00008   0.00018  -0.00289  -0.00275   1.92106
    A2        1.93680   0.00035  -0.00003   0.00499   0.00496   1.94176
    A3        1.86883  -0.00051   0.00002  -0.00493  -0.00492   1.86391
    A4        1.93680   0.00035  -0.00003   0.00499   0.00496   1.94176
    A5        1.86883  -0.00051   0.00002  -0.00493  -0.00492   1.86391
    A6        1.92639   0.00035  -0.00015   0.00207   0.00192   1.92832
    D1        2.14530   0.00039   0.00018   0.00333   0.00351   2.14881
    D2       -2.06317   0.00062  -0.00023   0.00843   0.00818  -2.05498
    D3        2.11001   0.00031  -0.00011   0.00422   0.00409   2.11410
    D4       -2.11001  -0.00031   0.00011  -0.00422  -0.00409  -2.11410
         Item               Value     Threshold  Converged?
 Maximum Force            0.001165     0.000450     NO 
 RMS     Force            0.000548     0.000300     NO 
 Maximum Displacement     0.004072     0.001800     NO 
 RMS     Displacement     0.003001     0.001200     NO 
 Predicted change in Energy=-1.239842D-05
 GradGradGradGradGradGradGradGradGradGradGradGradGradGradGradGradGradGrad

                          Input orientation:                          
 ---------------------------------------------------------------------
 Center     Atomic      Atomic             Coordinates (Angstroms)
 Number     Number       Type             X           Y           Z
 ---------------------------------------------------------------------
      1          6           0       -4.555021    3.135079    0.014923
      2          1           0       -4.226191    2.084958   -0.000214
      3          1           0       -4.226172    3.647026   -0.902073
      4          9           0       -4.102120    3.780472    1.132787
      5         17           0       -6.379432    3.116784   -0.016804
 ---------------------------------------------------------------------
                    Distance matrix (angstroms):
                    1          2          3          4          5
     1  C    0.000000
     2  H    1.100506   0.000000
     3  H    1.100506   1.803720   0.000000
     4  F    1.367944   2.043001   2.043001   0.000000
     5  Cl   1.824778   2.387758   2.387758   2.635943   0.000000
 Stoichiometry    CH2ClF
 Framework group  CS[SG(CClF),X(H2)]
 Deg. of freedom     6
 Full point group                 CS      NOp   2
 Largest Abelian subgroup         CS      NOp   2
 Largest concise Abelian subgroup CS      NOp   2
                         Standard orientation:                         
 ---------------------------------------------------------------------
 Center     Atomic      Atomic             Coordinates (Angstroms)
 Number     Number       Type             X           Y           Z
 ---------------------------------------------------------------------
      1          6           0        0.000000   -0.826189    0.000000
      2          1           0       -0.387400   -1.323866    0.901860
      3          1           0       -0.387400   -1.323866   -0.901860
      4          9           0        1.367569   -0.794165    0.000000
      5         17           0       -0.678431    0.867785    0.000000
 ---------------------------------------------------------------------
 Rotational constants (GHZ):          41.0952697           5.4451691           4.9629073
 Standard basis: STO-3G (5D, 7F)
 There are    16 symmetry adapted cartesian basis functions of A'  symmetry.
 There are     5 symmetry adapted cartesian basis functions of A"  symmetry.
 There are    16 symmetry adapted basis functions of A'  symmetry.
 There are     5 symmetry adapted basis functions of A"  symmetry.
    21 basis functions,    63 primitive gaussians,    21 cartesian basis functions
    17 alpha electrons       17 beta electrons
       nuclear repulsion energy        99.4454104252 Hartrees.
 NAtoms=    5 NActive=    5 NUniq=    4 SFac= 1.56D+00 NAtFMM=   60 NAOKFM=F Big=F
 Integral buffers will be    131072 words long.
 Raffenetti 1 integral format.
 Two-electron integral symmetry is turned on.
 One-electron integrals computed using PRISM.
 NBasis=    21 RedAO= T EigKep=  2.60D-01  NBF=    16     5
 NBsUse=    21 1.00D-06 EigRej= -1.00D+00 NBFU=    16     5
 Initial guess from the checkpoint file:  "C:\G16W\Scratch\CH2FCl-sto3g.chk"
 B after Tr=     0.000000    0.000000    0.000000
         Rot=    0.999999    0.000000    0.000000    0.001114 Ang=   0.13 deg.
 Initial guess orbital symmetries:
       Occupied  (A') (A') (A') (A') (A') (A') (A") (A') (A') (A')
                 (A") (A') (A') (A") (A') (A') (A")
       Virtual   (A') (A') (A") (A')
 Keep R1 ints in memory in symmetry-blocked form, NReq=834637.
 Requested convergence on RMS density matrix=1.00D-08 within 128 cycles.
 Requested convergence on MAX density matrix=1.00D-06.
 Requested convergence on             energy=1.00D-06.
 No special actions if energy rises.
 SCF Done:  E(RHF) =  -591.172392169     A.U. after    8 cycles
            NFock=  8  Conv=0.62D-08     -V/T= 2.0166
 Calling FoFJK, ICntrl=      2127 FMM=F ISym2X=1 I1Cent= 0 IOpClX= 0 NMat=1 NMatS=1 NMatT=0.
 ***** Axes restored to original set *****
 -------------------------------------------------------------------
 Center     Atomic                   Forces (Hartrees/Bohr)
 Number     Number              X              Y              Z
 -------------------------------------------------------------------
      1        6           0.000164434    0.000219779    0.000380672
      2        1           0.000180431   -0.000181064    0.000109512
      3        1           0.000180435    0.000185369   -0.000102048
      4        9          -0.000069144   -0.000238712   -0.000413464
      5       17          -0.000456157    0.000014628    0.000025327
 -------------------------------------------------------------------
 Cartesian Forces:  Max     0.000456157 RMS     0.000233319

 GradGradGradGradGradGradGradGradGradGradGradGradGradGradGradGradGradGrad
 Berny optimization.
 Using GEDIIS/GDIIS optimizer.
 FormGI is forming the generalized inverse of G from B-inverse, IUseBI=4.
 Internal  Forces:  Max     0.000473392 RMS     0.000209043
 Search for a local minimum.
 Step number   4 out of a maximum of   24
 All quantities printed in internal units (Hartrees-Bohrs-Radians)
 Mixed Optimization -- En-DIIS/RFO-DIIS
 Swapping is turned off.
 Update second derivatives using D2CorX and points    1    2    3    4
 DE= -1.10D-05 DEPred=-1.24D-05 R= 8.88D-01
 TightC=F SS=  1.41D+00  RLast= 1.55D-02 DXNew= 8.4853D-01 4.6360D-02
 Trust test= 8.88D-01 RLast= 1.55D-02 DXMaxT set to 5.05D-01
 The second derivative matrix:
                          R1        R2        R3        R4        A1
           R1           0.39392
           R2           0.02162   0.39392
           R3           0.00431   0.00431   0.52868
           R4           0.02926   0.02926   0.05390   0.29789
           A1           0.00139   0.00139   0.01790   0.00425   0.11907
           A2           0.00119   0.00119   0.01744  -0.02183   0.01686
           A3          -0.00712  -0.00712  -0.03985   0.01621  -0.00748
           A4           0.00119   0.00119   0.01744  -0.02183   0.01686
           A5          -0.00712  -0.00712  -0.03985   0.01621  -0.00748
           A6           0.00420   0.00420   0.00588   0.00140   0.03712
           D1          -0.02201  -0.02201  -0.03637   0.00145   0.00664
           D2          -0.00891  -0.00891   0.01041   0.01433  -0.00563
           D3          -0.00446  -0.00446   0.00521   0.00717  -0.00282
           D4           0.00446   0.00446  -0.00521  -0.00717   0.00282
                          A2        A3        A4        A5        A6
           A2           0.14104
           A3           0.01594   0.14876
           A4          -0.01896   0.01594   0.14104
           A5           0.01594  -0.01124   0.01594   0.14876
           A6          -0.01612   0.00185  -0.01612   0.00185   0.22447
           D1           0.00612  -0.00592   0.00612  -0.00592  -0.00879
           D2           0.01213  -0.01910   0.01213  -0.01910   0.01744
           D3           0.00606  -0.00955   0.00606  -0.00955   0.00872
           D4          -0.00606   0.00955  -0.00606   0.00955  -0.00872
                          D1        D2        D3        D4
           D1           0.03990
           D2           0.00908   0.02606
           D3           0.00454   0.01184   0.00830
           D4          -0.00454  -0.01184  -0.00592   0.00830
 ITU=  1  1  1  0
     Eigenvalues ---    0.05756   0.06353   0.10557   0.16000   0.22418
     Eigenvalues ---    0.27760   0.37230   0.42671   0.54656
 En-DIIS/RFO-DIIS/Sim-DIIS IScMMF=       -3 using points:     4    3
 RFO step:  Lambda=-1.86996549D-06.
 DidBck=F Rises=F RFO-DIIS coefs:    0.89445    0.10555
 Iteration  1 RMS(Cart)=  0.00075282 RMS(Int)=  0.00000123
 Iteration  2 RMS(Cart)=  0.00000021 RMS(Int)=  0.00000121
 ClnCor:  largest displacement from symmetrization is 1.59D-13 for atom     3.
 Variable       Old X    -DE/DX   Delta X   Delta X   Delta X     New X
                                 (Linear)    (Quad)   (Total)
    R1        2.07965   0.00023   0.00022   0.00018   0.00040   2.08005
    R2        2.07965   0.00023   0.00022   0.00018   0.00040   2.08005
    R3        2.58504  -0.00047   0.00026  -0.00121  -0.00095   2.58409
    R4        3.44833   0.00046  -0.00016   0.00167   0.00151   3.44984
    A1        1.92106   0.00003   0.00029   0.00002   0.00031   1.92137
    A2        1.94176  -0.00011  -0.00052  -0.00027  -0.00079   1.94096
    A3        1.86391   0.00009   0.00052   0.00006   0.00058   1.86449
    A4        1.94176  -0.00011  -0.00052  -0.00027  -0.00079   1.94096
    A5        1.86391   0.00009   0.00052   0.00006   0.00058   1.86449
    A6        1.92832   0.00004  -0.00020   0.00043   0.00023   1.92855
    D1        2.14881  -0.00013  -0.00037  -0.00037  -0.00074   2.14807
    D2       -2.05498  -0.00011  -0.00086  -0.00008  -0.00094  -2.05593
    D3        2.11410  -0.00006  -0.00043  -0.00004  -0.00047   2.11363
    D4       -2.11410   0.00006   0.00043   0.00004   0.00047  -2.11363
         Item               Value     Threshold  Converged?
 Maximum Force            0.000473     0.000450     NO 
 RMS     Force            0.000209     0.000300     YES
 Maximum Displacement     0.001774     0.001800     YES
 RMS     Displacement     0.000753     0.001200     YES
 Predicted change in Energy=-9.349267D-07
 GradGradGradGradGradGradGradGradGradGradGradGradGradGradGradGradGradGrad

                          Input orientation:                          
 ---------------------------------------------------------------------
 Center     Atomic      Atomic             Coordinates (Angstroms)
 Number     Number       Type             X           Y           Z
 ---------------------------------------------------------------------
      1          6           0       -4.555157    3.135045    0.014865
      2          1           0       -4.225720    2.084887    0.000205
      3          1           0       -4.225701    3.647423   -0.901925
      4          9           0       -4.101987    3.780124    1.132184
      5         17           0       -6.380371    3.116839   -0.016709
 ---------------------------------------------------------------------
                    Distance matrix (angstroms):
                    1          2          3          4          5
     1  C    0.000000
     2  H    1.100716   0.000000
     3  H    1.100716   1.804261   0.000000
     4  F    1.367440   2.042184   2.042184   0.000000
     5  Cl   1.825578   2.389086   2.389086   2.636463   0.000000
 Stoichiometry    CH2ClF
 Framework group  CS[SG(CClF),X(H2)]
 Deg. of freedom     6
 Full point group                 CS      NOp   2
 Largest Abelian subgroup         CS      NOp   2
 Largest concise Abelian subgroup CS      NOp   2
                         Standard orientation:                         
 ---------------------------------------------------------------------
 Center     Atomic      Atomic             Coordinates (Angstroms)
 Number     Number       Type             X           Y           Z
 ---------------------------------------------------------------------
      1          6           0        0.000000   -0.826445    0.000000
      2          1           0       -0.386910   -1.324479    0.902130
      3          1           0       -0.386910   -1.324479   -0.902130
      4          9           0        1.367082   -0.795150    0.000000
      5         17           0       -0.678231    0.868469    0.000000
 ---------------------------------------------------------------------
 Rotational constants (GHZ):          41.1113320           5.4421880           4.9607605
 Standard basis: STO-3G (5D, 7F)
 There are    16 symmetry adapted cartesian basis functions of A'  symmetry.
 There are     5 symmetry adapted cartesian basis functions of A"  symmetry.
 There are    16 symmetry adapted basis functions of A'  symmetry.
 There are     5 symmetry adapted basis functions of A"  symmetry.
    21 basis functions,    63 primitive gaussians,    21 cartesian basis functions
    17 alpha electrons       17 beta electrons
       nuclear repulsion energy        99.4305902899 Hartrees.
 NAtoms=    5 NActive=    5 NUniq=    4 SFac= 1.56D+00 NAtFMM=   60 NAOKFM=F Big=F
 Integral buffers will be    131072 words long.
 Raffenetti 1 integral format.
 Two-electron integral symmetry is turned on.
 One-electron integrals computed using PRISM.
 NBasis=    21 RedAO= T EigKep=  2.60D-01  NBF=    16     5
 NBsUse=    21 1.00D-06 EigRej= -1.00D+00 NBFU=    16     5
 Initial guess from the checkpoint file:  "C:\G16W\Scratch\CH2FCl-sto3g.chk"
 B after Tr=     0.000000    0.000000    0.000000
         Rot=    1.000000    0.000000    0.000000    0.000242 Ang=   0.03 deg.
 Initial guess orbital symmetries:
       Occupied  (A') (A') (A') (A') (A') (A') (A") (A') (A') (A')
                 (A") (A') (A') (A") (A') (A') (A")
       Virtual   (A') (A') (A") (A')
 Keep R1 ints in memory in symmetry-blocked form, NReq=834637.
 Requested convergence on RMS density matrix=1.00D-08 within 128 cycles.
 Requested convergence on MAX density matrix=1.00D-06.
 Requested convergence on             energy=1.00D-06.
 No special actions if energy rises.
 SCF Done:  E(RHF) =  -591.172392988     A.U. after    7 cycles
            NFock=  7  Conv=0.88D-08     -V/T= 2.0166
 Calling FoFJK, ICntrl=      2127 FMM=F ISym2X=1 I1Cent= 0 IOpClX= 0 NMat=1 NMatS=1 NMatT=0.
 ***** Axes restored to original set *****
 -------------------------------------------------------------------
 Center     Atomic                   Forces (Hartrees/Bohr)
 Number     Number              X              Y              Z
 -------------------------------------------------------------------
      1        6          -0.000030924   -0.000004504   -0.000007802
      2        1          -0.000011281   -0.000078456   -0.000007325
      3        1          -0.000011279    0.000032885   -0.000071607
      4        9          -0.000007033    0.000046892    0.000081219
      5       17           0.000060516    0.000003183    0.000005515
 -------------------------------------------------------------------
 Cartesian Forces:  Max     0.000081219 RMS     0.000041839

 GradGradGradGradGradGradGradGradGradGradGradGradGradGradGradGradGradGrad
 Berny optimization.
 Using GEDIIS/GDIIS optimizer.
 FormGI is forming the generalized inverse of G from B-inverse, IUseBI=4.
 Internal  Forces:  Max     0.000086154 RMS     0.000043993
 Search for a local minimum.
 Step number   5 out of a maximum of   24
 All quantities printed in internal units (Hartrees-Bohrs-Radians)
 Mixed Optimization -- En-DIIS/RFO-DIIS
 Swapping is turned off.
 Update second derivatives using D2CorX and points    1    2    3    4    5
 DE= -8.19D-07 DEPred=-9.35D-07 R= 8.76D-01
 Trust test= 8.76D-01 RLast= 2.73D-03 DXMaxT set to 5.05D-01
 The second derivative matrix:
                          R1        R2        R3        R4        A1
           R1           0.38550
           R2           0.01320   0.38550
           R3           0.02962   0.02962   0.56307
           R4           0.01072   0.01072   0.03241   0.31402
           A1           0.00557   0.00557   0.01793   0.01016   0.11086
           A2           0.00212   0.00212   0.00712  -0.02455   0.01597
           A3          -0.00972  -0.00972  -0.01926   0.00940  -0.00567
           A4           0.00212   0.00212   0.00712  -0.02455   0.01597
           A5          -0.00972  -0.00972  -0.01926   0.00940  -0.00567
           A6          -0.00138  -0.00138  -0.00088   0.00386   0.04700
           D1          -0.02147  -0.02147   0.01920  -0.02735   0.00509
           D2          -0.00334  -0.00334   0.03791   0.00695  -0.00676
           D3          -0.00167  -0.00167   0.01896   0.00348  -0.00338
           D4           0.00167   0.00167  -0.01896  -0.00348   0.00338
                          A2        A3        A4        A5        A6
           A2           0.13942
           A3           0.02094   0.14194
           A4          -0.02058   0.02094   0.13942
           A5           0.02094  -0.01806   0.02094   0.14194
           A6          -0.01838  -0.00047  -0.01838  -0.00047   0.21785
           D1           0.01600  -0.01221   0.01600  -0.01221  -0.01551
           D2           0.01273  -0.01987   0.01273  -0.01987   0.01907
           D3           0.00637  -0.00994   0.00637  -0.00994   0.00954
           D4          -0.00637   0.00994  -0.00637   0.00994  -0.00954
                          D1        D2        D3        D4
           D1           0.05051
           D2           0.01345   0.03259
           D3           0.00672   0.01511   0.00993
           D4          -0.00672  -0.01511  -0.00755   0.00993
 ITU=  0  1  1  1  0
     Eigenvalues ---    0.05753   0.06307   0.10824   0.16000   0.22816
     Eigenvalues ---    0.31840   0.37230   0.39145   0.58252
 En-DIIS/RFO-DIIS/Sim-DIIS IScMMF=       -3 using points:     5    4    3
 RFO step:  Lambda=-8.33222478D-08.
 DidBck=F Rises=F RFO-DIIS coefs:    0.86233    0.13081    0.00686
 Iteration  1 RMS(Cart)=  0.00016650 RMS(Int)=  0.00000009
 Iteration  2 RMS(Cart)=  0.00000001 RMS(Int)=  0.00000009
 ClnCor:  largest displacement from symmetrization is 1.00D-13 for atom     3.
 Variable       Old X    -DE/DX   Delta X   Delta X   Delta X     New X
                                 (Linear)    (Quad)   (Total)
    R1        2.08005   0.00007  -0.00004   0.00022   0.00018   2.08024
    R2        2.08005   0.00007  -0.00004   0.00022   0.00018   2.08024
    R3        2.58409   0.00009   0.00015  -0.00003   0.00011   2.58420
    R4        3.44984  -0.00006  -0.00022   0.00007  -0.00015   3.44969
    A1        1.92137   0.00000  -0.00002   0.00015   0.00013   1.92150
    A2        1.94096   0.00003   0.00008   0.00008   0.00015   1.94112
    A3        1.86449  -0.00001  -0.00005  -0.00009  -0.00013   1.86436
    A4        1.94096   0.00003   0.00008   0.00008   0.00015   1.94112
    A5        1.86449  -0.00001  -0.00005  -0.00009  -0.00013   1.86436
    A6        1.92855  -0.00004  -0.00004  -0.00015  -0.00019   1.92836
    D1        2.14807   0.00005   0.00008   0.00031   0.00039   2.14846
    D2       -2.05593   0.00001   0.00007  -0.00009  -0.00002  -2.05594
    D3        2.11363   0.00000   0.00004  -0.00005  -0.00001   2.11362
    D4       -2.11363   0.00000  -0.00004   0.00005   0.00001  -2.11362
         Item               Value     Threshold  Converged?
 Maximum Force            0.000086     0.000450     YES
 RMS     Force            0.000044     0.000300     YES
 Maximum Displacement     0.000288     0.001800     YES
 RMS     Displacement     0.000166     0.001200     YES
 Predicted change in Energy=-4.166215D-08
 Optimization completed.
    -- Stationary point found.
                           ----------------------------
                           !   Optimized Parameters   !
                           ! (Angstroms and Degrees)  !
 --------------------------                            --------------------------
 ! Name  Definition              Value          Derivative Info.                !
 --------------------------------------------------------------------------------
 ! R1    R(1,2)                  1.1007         -DE/DX =    0.0001              !
 ! R2    R(1,3)                  1.1007         -DE/DX =    0.0001              !
 ! R3    R(1,4)                  1.3674         -DE/DX =    0.0001              !
 ! R4    R(1,5)                  1.8256         -DE/DX =   -0.0001              !
 ! A1    A(2,1,3)              110.0865         -DE/DX =    0.0                 !
 ! A2    A(2,1,4)              111.209          -DE/DX =    0.0                 !
 ! A3    A(2,1,5)              106.8273         -DE/DX =    0.0                 !
 ! A4    A(3,1,4)              111.209          -DE/DX =    0.0                 !
 ! A5    A(3,1,5)              106.8273         -DE/DX =    0.0                 !
 ! A6    A(4,1,5)              110.4977         -DE/DX =    0.0                 !
 ! D1    D(2,1,4,3)            123.0754         -DE/DX =    0.0                 !
 ! D2    D(2,1,5,3)           -117.7958         -DE/DX =    0.0                 !
 ! D3    D(2,1,5,4)            121.1021         -DE/DX =    0.0                 !
 ! D4    D(3,1,5,4)           -121.1021         -DE/DX =    0.0                 !
 --------------------------------------------------------------------------------
 GradGradGradGradGradGradGradGradGradGradGradGradGradGradGradGradGradGrad

                          Input orientation:                          
 ---------------------------------------------------------------------
 Center     Atomic      Atomic             Coordinates (Angstroms)
 Number     Number       Type             X           Y           Z
 ---------------------------------------------------------------------
      1          6           0       -4.555157    3.135045    0.014865
      2          1           0       -4.225720    2.084887    0.000205
      3          1           0       -4.225701    3.647423   -0.901925
      4          9           0       -4.101987    3.780124    1.132184
      5         17           0       -6.380371    3.116839   -0.016709
 ---------------------------------------------------------------------
                    Distance matrix (angstroms):
                    1          2          3          4          5
     1  C    0.000000
     2  H    1.100716   0.000000
     3  H    1.100716   1.804261   0.000000
     4  F    1.367440   2.042184   2.042184   0.000000
     5  Cl   1.825578   2.389086   2.389086   2.636463   0.000000
 Stoichiometry    CH2ClF
 Framework group  CS[SG(CClF),X(H2)]
 Deg. of freedom     6
 Full point group                 CS      NOp   2
 Largest Abelian subgroup         CS      NOp   2
 Largest concise Abelian subgroup CS      NOp   2
                         Standard orientation:                         
 ---------------------------------------------------------------------
 Center     Atomic      Atomic             Coordinates (Angstroms)
 Number     Number       Type             X           Y           Z
 ---------------------------------------------------------------------
      1          6           0        0.000000   -0.826445    0.000000
      2          1           0       -0.386910   -1.324479    0.902130
      3          1           0       -0.386910   -1.324479   -0.902130
      4          9           0        1.367082   -0.795150    0.000000
      5         17           0       -0.678231    0.868469    0.000000
 ---------------------------------------------------------------------
 Rotational constants (GHZ):          41.1113320           5.4421880           4.9607605

 **********************************************************************

            Population analysis using the SCF Density.

 **********************************************************************

 Orbital symmetries:
       Occupied  (A') (A') (A') (A') (A') (A') (A") (A') (A') (A')
                 (A") (A') (A') (A") (A') (A') (A")
       Virtual   (A') (A') (A") (A')
 The electronic state is 1-A'.
 Alpha  occ. eigenvalues -- -103.68935 -25.99865 -11.20766 -10.37378  -7.81786
 Alpha  occ. eigenvalues --   -7.81235  -7.81227  -1.54410  -1.05539  -0.86489
 Alpha  occ. eigenvalues --   -0.67107  -0.61922  -0.57628  -0.48023  -0.43686
 Alpha  occ. eigenvalues --   -0.39737  -0.38755
 Alpha virt. eigenvalues --    0.33107   0.55661   0.62931   0.63442
          Condensed to atoms (all electrons):
               1          2          3          4          5
     1  C    4.735195   0.372660   0.372660   0.222194   0.212997
     2  H    0.372660   0.585520  -0.024126  -0.013546  -0.023760
     3  H    0.372660  -0.024126   0.585520  -0.013546  -0.023760
     4  F    0.222194  -0.013546  -0.013546   8.928535  -0.012067
     5  Cl   0.212997  -0.023760  -0.023760  -0.012067  17.025814
 Mulliken charges:
               1
     1  C    0.084294
     2  H    0.103251
     3  H    0.103251
     4  F   -0.111571
     5  Cl  -0.179225
 Sum of Mulliken charges =   0.00000
 Mulliken charges with hydrogens summed into heavy atoms:
               1
     1  C    0.290796
     4  F   -0.111571
     5  Cl  -0.179225
 Electronic spatial extent (au):  <R**2>=            237.7961
 Charge=              0.0000 electrons
 Dipole moment (field-independent basis, Debye):
    X=             -0.1676    Y=             -2.2477    Z=              0.0000  Tot=              2.2540
 Quadrupole moment (field-independent basis, Debye-Ang):
   XX=            -23.8096   YY=            -21.5856   ZZ=            -21.3859
   XY=              1.6443   XZ=              0.0000   YZ=              0.0000
 Traceless Quadrupole moment (field-independent basis, Debye-Ang):
   XX=             -1.5492   YY=              0.6748   ZZ=              0.8744
   XY=              1.6443   XZ=              0.0000   YZ=              0.0000
 Octapole moment (field-independent basis, Debye-Ang**2):
  XXX=              8.4167  YYY=             -4.5253  ZZZ=              0.0000  XYY=              2.2609
  XXY=             -0.5577  XXZ=              0.0000  XZZ=              2.8995  YZZ=             -2.3653
  YYZ=              0.0000  XYZ=              0.0000
 Hexadecapole moment (field-independent basis, Debye-Ang**3):
 XXXX=            -95.6572 YYYY=           -115.4141 ZZZZ=            -22.7044 XXXY=             32.6756
 XXXZ=              0.0000 YYYX=             30.7624 YYYZ=              0.0000 ZZZX=              0.0000
 ZZZY=              0.0000 XXYY=            -35.7183 XXZZ=            -19.4648 YYZZ=            -22.4946
 XXYZ=              0.0000 YYXZ=              0.0000 ZZXY=             11.1758
 N-N= 9.943059028988D+01 E-N=-1.599247258598D+03  KE= 5.815310538129D+02
 Symmetry A'   KE= 5.300923552817D+02
 Symmetry A"   KE= 5.143869853119D+01
 1|1|UNPC-DESKTOP-SI45VP7|FOpt|RHF|STO-3G|C1H2Cl1F1|DOG OF ROMAN|07-Sep
 -2025|0||# HF/STO-3G Opt SCF=Tight||CH2FCl-sto3g||0,1|C,-4.5551572929,
 3.1350454078,0.0148645623|H,-4.225720405,2.0848871292,0.0002046421|H,-
 4.2257011364,3.6474231911,-0.9019252907|F,-4.1019871853,3.7801242226,1
 .1321843697|Cl,-6.3803710202,3.1168391501,-0.0167086096||Version=EM64W
 -G16RevB.01|State=1-A'|HF=-591.172393|RMSD=8.806e-009|RMSF=4.184e-005|
 Dipole=0.8041563,-0.1869032,-0.3237089|Quadrupole=-0.5115658,0.4529634
 ,0.0586024,-0.7319684,-1.2678322,-0.3414948|PG=CS [SG(C1Cl1F1),X(H2)]|
 |@


 WE LEARN WISDOM FROM FAILURE MUCH MORE THAN FROM SUCCESS.
 WE DISCOVER WHAT WILL DO BY FINDING OUT WHAT WILL NOT DO...
 AND HE WHO NEVER MADE A MISTAKE NEVER MADE A DISCOVERY
 Job cpu time:       0 days  0 hours  0 minutes  4.0 seconds.
 Elapsed time:       0 days  0 hours  0 minutes  1.7 seconds.
 File lengths (MBytes):  RWF=      6 Int=      0 D2E=      0 Chk=      1 Scr=      1
 Normal termination of Gaussian 16 at Sun Sep 07 16:56:06 2025.
