
                                 *****************
                                 * O   R   C   A *
                                 *****************

                                            #,                                       
                                            ###                                      
                                            ####                                     
                                            #####                                    
                                            ######                                   
                                           ########,                                 
                                     ,,################,,,,,                         
                               ,,#################################,,                 
                          ,,##########################################,,             
                       ,#########################################, ''#####,          
                    ,#############################################,,   '####,        
                  ,##################################################,,,,####,       
                ,###########''''           ''''###############################       
              ,#####''   ,,,,##########,,,,          '''####'''          '####       
            ,##' ,,,,###########################,,,                        '##       
           ' ,,###''''                  '''############,,,                           
         ,,##''                                '''############,,,,        ,,,,,,###''
      ,#''                                            '''#######################'''  
     '                                                          ''''####''''         
             ,#######,   #######,   ,#######,      ##                                
            ,#'     '#,  ##    ##  ,#'     '#,    #''#        ,####,    ,#,          
            ##       ##  ##   ,#'  ##            #'  '#       #'       ,# #          
            ##       ##  #######   ##           ,######,      #####,      #          
            '#,     ,#'  ##    ##  '#,     ,#' ,#      #,     #,   #      #          
             '#######'   ##     ##  '#######'  #'      '#     '####' #    #          



                #########################################################
                #                        -***-                          #
                #          Department of theory and spectroscopy        #
                #                                                       #
                #                      Frank Neese                      #
                #                                                       #
                #     Directorship, Architecture, Infrastructure        #
                #                    SHARK, DRIVERS                     #
                #        Core code/Algorithms in most modules           #
                #                                                       #
                #        Max Planck Institute fuer Kohlenforschung      #
                #                Kaiser Wilhelm Platz 1                 #
                #                 D-45470 Muelheim/Ruhr                 #
                #                      Germany                          #
                #                                                       #
                #                  All rights reserved                  #
                #                        -***-                          #
                #########################################################


                         Program Version 6.1.0  -  RELEASE   -


 With contributions from (in alphabetic order):
[Max-Planck-Institut fuer Kohlenforschung]                               
  Daniel Aravena         : Magnetic Suceptibility                        
  Michael Atanasov       : Ab Initio Ligand Field Theory (pilot matlab implementation)
  Alexander A. Auer      : GIAO ZORA, VPT2 properties, NMR spectrum      
  Ute Becker             : All parallelization in ORCA, NUMFREQ, NUMCALC 
  Giovanni Bistoni       : ED, misc. LED, open-shell LED, HFLD           
  Dmytro Bykov           : pre 5.0 version of the SCF Hessian            
  Marcos Casanova-Páez   : Triplet and SCS-CIS(D). UHF-(DLPNO)-IP/EA/STEOM-CCSD. UHF-CVS-IP/STEOM-CCSD   
  Vijay G. Chilkuri      : MRCI spin determinant printing, contributions to CSF-ICE 
  Pauline Colinet        : FMM embedding                                 
  Dipayan Datta          : RHF DLPNO-CCSD density                        
  Achintya Kumar Dutta   : EOM-CC, STEOM-CC                              
  Nicolas Foglia         : Exact transition moments, OPA infrastructure, MCD improvements    
  Dmitry Ganyushin       : Spin-Orbit,Spin-Spin,Magnetic field MRCI      
  Miquel Garcia-Rates    : C-PCM and meta-GGA Hessian, CCSD/C-PCM, Gaussian charge scheme 
  Tiago L. C. Gouveia    : GS-ROHF, GS-ROCIS                             
  Yang Guo               : DLPNO-NEVPT2, F12-NEVPT2, CIM, IAO-localization        
  Andreas Hansen         : Spin unrestricted coupled pair/coupled cluster methods 
  Ingolf Harden          : AUTO-CI MPn and infrastructure                
  Benjamin Helmich-Paris : MC-RPA, TRAH-(SCF,CASSCF), AVAS, COSX integrals, SCF dyn. polar., MC-PDFT, srDFT 
  Lee Huntington         : MR-EOM, pCC                                   
  Robert Izsak           : Overlap fitted RIJCOSX, COSX-SCS-MP3, EOM     
  Riya Kayal             : Wick's Theorem for AUTO-CI, AUTO-CI UHF-CCSDT 
  Emily Kempfer          : AUTO-CI RHF CISDT and CCSDT, approximate NEVPT4
  Christian Kollmar      : KDIIS, OOCD, Brueckner-CCSD(T), CCSD density, CASPT2, CASPT2-K, improved NEVPT2 
  Axel Koslowski         : Symmetry handling                             
  Simone Kossmann        : meta-GGA functionals, TD-DFT gradient, OOMP2, (MP2 Hessian; deprecated post 5.0) 
  Lucas Lang             : DCDCAS, Hyperfine gauge corrections, ICE-SOC+SSC
  Marvin Lechner         : AUTO-CI (C++ implementation), FIC-MRCC        
  Spencer Leger          : CASSCF response                               
  Dagmar Lenk            : GEPOL surface, SMD, ORCA-2-JSON               
  Dimitrios Liakos       : Extrapolation schemes; Compound Job, Property file
  Dimitrios Manganas     : Further ROCIS development; embedding schemes. LFT, Crystal Embedding 
  Dimitrios Pantazis     : SARC Basis sets                               
  Anastasios Papadopoulos: AUTO-CI, single reference methods and gradients 
  Taras Petrenko         : pre 6.0 DFT Hessian and TD-DFT gradient,  ECA, NRVS 
  Petra Pikulova         : Analytic Raman intensities                    
  Peter Pinski           : DLPNO-MP2, DLPNO-MP2 Gradient                 
  Shashank Vittal Rao    : ES-AILFT, MagRelax                            
  Christoph Reimann      : Effective Core Potentials                     
  Marius Retegan         : Local ZFS, SOC                                
  Christoph Riplinger    : Optimizer, TS searches, QM/MM, DLPNO-CCSD(T), (RO)-DLPNO pert. Triples 
  Michael Roemelt        : Original ROCIS implementation, recursive CI coupling coefficients
  Masaaki Saitow         : Open-shell DLPNO-CCSD energy and density      
  Barbara Sandhoefer     : DKH picture change effects                    
  Yorick L. A. Schmerwitz: GMF and freeze-and-release deltaSCF, NEB S-IDPP initial path                    
  Kantharuban Sivalingam : CASSCF convergence/infrastructure, NEVPT2, NEVPT3, NEVPT4(SD), FIC-MRCI and CEPA variants
  Bernardo de Souza      : ESD, SOC TD-DFT                               
  Georgi L. Stoychev     : AutoAux, RI-MP2 NMR, DLPNO-MP2 response, X2C  
  Van Anh Tran           : RI-MP2 g-tensors                              
  Willem Van den Heuvel  : Paramagnetic NMR                              
  Zikuan Wang            : NOTCH, Electric field optimization            
  Frank Wennmohs         : Technical directorship and infrastructure     
  Hang Xu                : AUTO-CI-Response properties                   
                                                                         
[FACCTs GmbH]                                                            
  Markus Bursch, Nicolas Foglia, Miquel Garcia-Rates, Ingolf Harden, Hagen Neugebauer, Anastasios Papadopoulos, 
  Christoph Riplinger, Bernardo de Souza, Georgi L. Stoychev                                                    
                                                                 
  APM, various basis sets, CI-OPT, improved COSX, DLPNO-Multilevel,           
  DOCKER, DRACO, updates on ESD, Fragmentator, GOAT, IRC, LR-CPCM, L-BFGS, MBIS, meta-GGA TD-DFT gradient, ML-optimized integration grids, 
  MM, NACMEs, nearIR, NEB, NEB-TS, NL-DFT gradient (VV10), 2- and 3-layer-ONIOM, interface openCOSMO-RS, QMMM,   
  Crystal-QMMM, RESP, rigid body optimization, SF, symmetry and pop. for TD-DFT, various functionals, SOLVATOR                                   
                                                                         
[Other institutions]                                                     
  V. Asgeirsson          : NEB                                           
  Christoph Bannwarth    : sTDA-DFT, sTD-DFT, PBEh-3c, B97-3c, D3        
  Giovanni Bistoni       : ETS/NOCV, ADLD/ADEX, COVALED                  
  Martin Brehm           : Molecular dynamics                            
  Ronald Cardenas        : ETS/NOCV                                      
  Martina Colucci        : COVALED                                       
  Sebastian Ehlert       : rSCAN, r2SCAN, r2SCAN-3c, D4, dhf basis sets  
  Marvin Friede          : D4 for Fr, Ra, Ac-Lr                          
  Lars Goerigk           : TD-DFT with DH, B97 family of functionals     
  Stefan Grimme          : VdW corrections, initial TS optimization, DFT functionals, gCP, sTDA/sTD-DF 
  Waldemar Hujo          : DFT-NL                                        
  H. Jonsson             : NEB                                           
  Holger Kruse           : gCP                                           
  Marcel Mueller         : wB97X-3c, vDZP basis set                      
  Hagen Neugebauer       : wr2SCAN, Native XTB                           
  Gianluca Regni         : ADLD/ADEX                                     
  Tobias Risthaus        : pre 6.0 range-separated hybrid DFT and stability analysis
  Lukas Wittmann         : regularized MP2, r2SCAN double-hybrids, wr2SCAN        
                                                                         
We gratefully acknowledge several colleagues who have allowed us to      
interface, adapt or use parts of their codes:                            
  Ed Valeev, F. Pavosevic, A. Kumar             : LibInt (2-el integral package), F12 methods 
  Garnet Chan, S. Sharma, J. Yang, R. Olivares  : DMRG                   
  Ulf Ekstrom                                   : XCFun DFT Library      
  Mihaly Kallay                                 : mrcc  (arbitrary order and MRCC methods)
  Frank Weinhold                                : gennbo (NPA and NBO analysis)           
  Simon Mueller                                 : openCOSMO-RS                            
  Christopher J. Cramer and Donald G. Truhlar   : smd solvation model                     
  S Lehtola, MJT Oliveira, MAL Marques          : LibXC Library                           
  Liviu Ungur et al                             : ANISO software                          


 Your calculation uses the libint2 library for the computation of 2-el integrals
 For citations please refer to: http://libint.valeyev.net

 Your ORCA version has been built with support for libXC version: 7.0.0
 For citations please refer to: https://libxc.gitlab.io

 This ORCA versions uses:
   CBLAS   interface :  Fast vector & matrix operations
   LAPACKE interface :  Fast linear algebra routines
   Shared memory     :  Shared parallel matrices


  ***********************************
  * Starting time: Fri Sep 12 18:31:10 2025
  * Host name:     DESKTOP-SI45VP7
  * Process ID:    23772
  * Working dir.:  C:\orca_jobs\ex3
  ***********************************

NOTE: MaxCore=1000 MB was set to SCF,MP2,MDCI,CIPSI,MRCI,RASCI and CIS
      => If you want to overwrite this, your respective input block should be placed after the MaxCore statement


***************************************
The coordinates will be read from file: Cu2_for_5_BSDFT.xyz
***************************************


================================================================================

----- Orbital basis set information -----
Your calculation utilizes the basis: DKH-def2-SVP
   Exponents from def2-SVP [F. Weigend and R. Ahlrichs, Phys. Chem. Chem. Phys. 7, 3297 (2005)],
   recontracted for DKH2 by D. A. Pantazis.

----- AuxJ basis set information -----
Your calculation utilizes the auxiliary basis: SARC/J 
   decontracted def2/J up to Kr:
   F. Weigend, Phys. Chem. Chem. Phys. 8, 1057 (2006)
   and SARC auxiliary basis sets beyond Kr:
   D. A. Pantazis and F. Neese, J. Chem. Theory Comput. 5, 2229 (2009).
   D. A. Pantazis, X. Y. Chen, C. R. Landis and F. Neese, J. Chem. Theory Comput. 4, 908 (2008).
   D. A. Pantazis and F. Neese, Theor. Chem. Acc. 131, 1292 (2012).
   D. A. Pantazis and F. Neese, J. Chem. Theory Comput. 7, 677 (2011).

================================================================================
                                        WARNINGS
                       Please study these warnings very carefully!
================================================================================



WARNING: Found flag for RIJCOSX approximation but no HF exchange needed!
  ===> : RIJCOSX  will be disabled and Split-RI-J is turned on

WARNING: Relativistic property calculations require picture change transformations!
  ===> : Setting %rel PictureChange = 2

WARNING: Broken symmetry calculations need fully converged wavefunctions
  ===> : Setting SCFConvForced true
         You can overwrite this default with %scf ConvForced false 


================================================================================
                                       INPUT FILE
================================================================================
NAME = CU2_BP_DKH.INP
|  1> ! UKS BP86 RIJCOSX DKH DKH-def2-SVP SARC/J TightSCF
|  2> 
|  3> %pal
|  4>   nprocs 16
|  5> end
|  6> 
|  7> %maxcore 1000
|  8> 
|  9> %scf
| 10> FlipSpin 0       
| 11> FinalMs 0         
| 12> MaxIter 300
| 13> end
| 14> 
| 15> * xyzfile -2 3 Cu2_for_5_BSDFT.xyz
| 16> 
| 17> 
| 18>                          ****END OF INPUT****
================================================================================

                       ****************************
                       * Single Point Calculation *
                       ****************************

---------------------------------
CARTESIAN COORDINATES (ANGSTROEM)
---------------------------------
  Cu     0.141181   -1.336905    0.234754
  O      1.853907   -0.798371    1.051912
  O     -1.617100   -1.409633   -0.682009
  O      0.979405   -1.292850   -1.557639
  O     -0.742003   -0.918471    1.949698
  O      0.308678   -3.400068    0.455636
  O      2.751666   -3.977012    1.815800
  C      2.185509    0.398030    1.131865
  C      3.460615    0.653748    1.941991
  C      1.067687   -0.260173   -2.235795
  C      1.618931   -0.442209   -3.659536
  C      0.382102   -4.233983    1.604840
  H      0.517910   -5.173228    1.322596
  H     -0.471544   -4.183907    2.102861
  C      1.515268   -3.812630    2.506479
  H      1.400268   -2.864765    2.769457
  H      1.513584   -4.364609    3.328165
  C      3.910544   -3.547910    2.558497
  H      3.726181   -2.667977    2.997756
  C      4.270062   -4.575455    3.600776
  H      3.535049   -4.659721    4.244253
  H      5.083192   -4.295457    4.069898
  H      4.424234   -5.440441    3.167295
  C      5.035233   -3.395380    1.539336
  H      4.778069   -2.728796    0.866960
  H      5.197143   -4.256218    1.100076
  H      5.851067   -3.101363    1.994972
  F      3.309933    0.210081    3.176928
  F      3.764557    1.920071    2.010385
  F      4.487126   -0.009151    1.460347
  F      0.626331   -0.649220   -4.492782
  F      2.297897    0.595009   -4.078567
  F      2.422470   -1.493916   -3.738526
  Cu    -0.141181    1.336905   -0.234754
  O     -1.853907    0.798371   -1.051912
  O      1.617100    1.409633    0.682009
  O     -0.979405    1.292850    1.557639
  O      0.742003    0.918471   -1.949698
  O     -0.308678    3.400068   -0.455636
  O     -2.751666    3.977012   -1.815800
  C     -2.185509   -0.398030   -1.131865
  C     -3.460615   -0.653748   -1.941991
  C     -1.067687    0.260173    2.235795
  C     -1.618931    0.442209    3.659536
  C     -0.382102    4.233983   -1.604840
  H     -0.517910    5.173228   -1.322596
  H      0.471544    4.183907   -2.102861
  C     -1.515268    3.812630   -2.506479
  H     -1.400268    2.864765   -2.769457
  H     -1.513584    4.364609   -3.328165
  C     -3.910544    3.547910   -2.558497
  H     -3.726181    2.667977   -2.997756
  C     -4.270062    4.575455   -3.600776
  H     -3.535049    4.659721   -4.244253
  H     -5.083192    4.295457   -4.069898
  H     -4.424234    5.440441   -3.167295
  C     -5.035233    3.395380   -1.539336
  H     -4.778069    2.728796   -0.866960
  H     -5.197143    4.256218   -1.100076
  H     -5.851067    3.101363   -1.994972
  F     -3.309933   -0.210081   -3.176928
  F     -3.764557   -1.920071   -2.010385
  F     -4.487126    0.009151   -1.460347
  F     -0.626331    0.649220    4.492782
  F     -2.297897   -0.595009    4.078567
  F     -2.422470    1.493916    3.738526

----------------------------
CARTESIAN COORDINATES (A.U.)
----------------------------
  NO LB      ZA    FRAG     MASS         X           Y           Z
   0 Cu   29.0000    0    63.550    0.266793   -2.526384    0.443621
   1 O     8.0000    0    15.999    3.503377   -1.508703    1.987826
   2 O     8.0000    0    15.999   -3.055876   -2.663820   -1.288810
   3 O     8.0000    0    15.999    1.850807   -2.443132   -2.943511
   4 O     8.0000    0    15.999   -1.402182   -1.735659    3.684395
   5 O     8.0000    0    15.999    0.583317   -6.425197    0.861027
   6 O     8.0000    0    15.999    5.199895   -7.515464    3.431365
   7 C     6.0000    0    12.011    4.130013    0.752168    2.138915
   8 C     6.0000    0    12.011    6.539615    1.235405    3.669831
   9 C     6.0000    0    12.011    2.017636   -0.491656   -4.225040
  10 C     6.0000    0    12.011    3.059336   -0.835654   -6.915521
  11 C     6.0000    0    12.011    0.722068   -8.001068    3.032708
  12 H     1.0000    0     1.008    0.978708   -9.775984    2.499344
  13 H     1.0000    0     1.008   -0.891089   -7.906438    3.973831
  14 C     6.0000    0    12.011    2.863442   -7.204827    4.736559
  15 H     1.0000    0     1.008    2.646123   -5.413621    5.233515
  16 H     1.0000    0     1.008    2.860259   -8.247916    6.289320
  17 C     6.0000    0    12.011    7.389857   -6.704578    4.834859
  18 H     1.0000    0     1.008    7.041462   -5.041746    5.664938
  19 C     6.0000    0    12.011    8.069248   -8.646357    6.804481
  20 H     1.0000    0     1.008    6.680274   -8.805597    8.020476
  21 H     1.0000    0     1.008    9.605841   -8.117237    7.690993
  22 H     1.0000    0     1.008    8.360591  -10.280944    5.985320
  23 C     6.0000    0    12.011    9.515211   -6.416338    2.908923
  24 H     1.0000    0     1.008    9.029242   -5.156677    1.638317
  25 H     1.0000    0     1.008    9.821177   -8.043086    2.078842
  26 H     1.0000    0     1.008   11.056914   -5.860727    3.769951
  27 F     9.0000    0    18.998    6.254867    0.396996    6.003524
  28 F     9.0000    0    18.998    7.113982    3.628408    3.799077
  29 F     9.0000    0    18.998    8.479439   -0.017293    2.759656
  30 F     9.0000    0    18.998    1.183594   -1.226848   -8.490128
  31 F     9.0000    0    18.998    4.342396    1.124404   -7.707375
  32 F     9.0000    0    18.998    4.577805   -2.823092   -7.064790
  33 Cu   29.0000    0    63.550   -0.266793    2.526384   -0.443621
  34 O     8.0000    0    15.999   -3.503377    1.508703   -1.987826
  35 O     8.0000    0    15.999    3.055876    2.663820    1.288810
  36 O     8.0000    0    15.999   -1.850807    2.443132    2.943511
  37 O     8.0000    0    15.999    1.402182    1.735659   -3.684395
  38 O     8.0000    0    15.999   -0.583317    6.425197   -0.861027
  39 O     8.0000    0    15.999   -5.199895    7.515464   -3.431365
  40 C     6.0000    0    12.011   -4.130013   -0.752168   -2.138915
  41 C     6.0000    0    12.011   -6.539615   -1.235405   -3.669831
  42 C     6.0000    0    12.011   -2.017636    0.491656    4.225040
  43 C     6.0000    0    12.011   -3.059336    0.835654    6.915521
  44 C     6.0000    0    12.011   -0.722068    8.001068   -3.032708
  45 H     1.0000    0     1.008   -0.978708    9.775984   -2.499344
  46 H     1.0000    0     1.008    0.891089    7.906438   -3.973831
  47 C     6.0000    0    12.011   -2.863442    7.204827   -4.736559
  48 H     1.0000    0     1.008   -2.646123    5.413621   -5.233515
  49 H     1.0000    0     1.008   -2.860259    8.247916   -6.289320
  50 C     6.0000    0    12.011   -7.389857    6.704578   -4.834859
  51 H     1.0000    0     1.008   -7.041462    5.041746   -5.664938
  52 C     6.0000    0    12.011   -8.069248    8.646357   -6.804481
  53 H     1.0000    0     1.008   -6.680274    8.805597   -8.020476
  54 H     1.0000    0     1.008   -9.605841    8.117237   -7.690993
  55 H     1.0000    0     1.008   -8.360591   10.280944   -5.985320
  56 C     6.0000    0    12.011   -9.515211    6.416338   -2.908923
  57 H     1.0000    0     1.008   -9.029242    5.156677   -1.638317
  58 H     1.0000    0     1.008   -9.821177    8.043086   -2.078842
  59 H     1.0000    0     1.008  -11.056914    5.860727   -3.769951
  60 F     9.0000    0    18.998   -6.254867   -0.396996   -6.003524
  61 F     9.0000    0    18.998   -7.113982   -3.628408   -3.799077
  62 F     9.0000    0    18.998   -8.479439    0.017293   -2.759656
  63 F     9.0000    0    18.998   -1.183594    1.226848    8.490128
  64 F     9.0000    0    18.998   -4.342396   -1.124404    7.707375
  65 F     9.0000    0    18.998   -4.577805    2.823092    7.064790

--------------------------------
INTERNAL COORDINATES (ANGSTROEM)
--------------------------------
 Cu     0   0   0     0.000000000000     0.00000000     0.00000000
 O      1   0   0     1.972611572813     0.00000000     0.00000000
 O      1   2   0     1.984262037916   166.11237228     0.00000000
 O      1   2   3     1.979200086815    90.07770835    80.16607040
 O      1   2   4     1.973862688575    88.32122039   193.59541285
 O      1   2   5     2.081702588628    99.01879534   261.30035288
 O      6   1   2     2.855013284413   108.64365451     1.98702110
 C      2   1   5     1.244077056060   121.37211734   278.43485852
 C      8   2   1     1.532185087591   114.60147822   172.95644703
 C      4   1   2     1.238592369664   122.99656006   274.33741762
 C     10   4   1     1.537545279955   115.71142652   185.99924906
 C      6   1   2     1.421785899711   132.16144548    63.66538320
 H     12   6   1     0.990094267444   109.45533912   183.77243415
 H     12   6   1     0.989567590179   109.42397712    65.54653834
 C      7   6   1     1.425741539470    57.68632984    92.73735306
 H     15   7   6     0.990368863964   109.85735887   268.89618308
 H     15   7   6     0.989874504618   109.83475393   149.94049878
 C      7   6   1     1.441778616535   150.81541993    10.19866134
 H     18   7   6     1.000609948651   109.86249063    22.77444026
 C     18   7   6     1.507132188360   110.18587741   143.96534670
 H     20  18   7     0.980513905283   109.48895605   297.25334384
 H     20  18   7     0.979619685280   109.53056767   177.26738103
 H     20  18   7     0.979732393637   109.48093787    57.20437033
 C     18   7   6     1.525411384362   106.15425969   263.93528538
 H     24  18   7     0.981099912001   109.42427002    59.91890263
 H     24  18   7     0.979901147027   109.48019166   299.96922646
 H     24  18   7     0.979609757169   109.46865333   179.87388448
 F      9   8   2     1.320838697942   110.08123284   300.72390240
 F      9   8   2     1.304082980078   112.56672208   180.58324828
 F      9   8   2     1.313446177069   111.85662648    57.32386174
 F     11  10   4     1.312405124433   109.59829306    91.12623327
 F     11  10   4     1.308588165788   112.87322773   211.93143201
 F     11  10   4     1.325896662063   111.49084465   332.62348286
 Cu     1   2   8     2.729363657926    83.89418204     2.57984780
 O     34   1   2     1.972611572813    83.89418204   180.00000000
 O      8   2   1     1.244507871259   129.54860593   355.01700499
 O     34   1   2     1.979200086815    82.31212243   270.90625617
 O     10   4   1     1.255835673964   129.73854588     3.95456838
 O     34   1   2     2.081702588628   175.94593890   316.10852543
 O     39  34  35     2.855013284413   108.64365451   358.01297890
 C     35  34   1     1.244077056060   121.37211734   357.42015220
 C     41  35  34     1.532185087591   114.60147822   187.04355297
 C     37  34   1     1.238592369664   122.99656006     1.83455019
 C     43  37  34     1.537545279955   115.71142652   174.00075094
 C     39  34  35     1.421785899711   132.16144548   296.33461680
 H     45  39  34     0.990094267444   109.45533912   176.22756585
 H     45  39  34     0.989567590179   109.42397712   294.45346166
 C     40  39  34     1.425741539470    57.68632984   267.26264694
 H     48  40  39     0.990368863964   109.85735887    91.10381692
 H     48  40  39     0.989874504618   109.83475393   210.05950122
 C     40  39  34     1.441778616535   150.81541993   349.80133866
 H     51  40  39     1.000609948651   109.86249063   337.22555974
 C     51  40  39     1.507132188360   110.18587741   216.03465330
 H     53  51  40     0.980513905283   109.48895605    62.74665616
 H     53  51  40     0.979619685280   109.53056767   182.73261897
 H     53  51  40     0.979732393637   109.48093787   302.79562967
 C     51  40  39     1.525411384362   106.15425969    96.06471462
 H     57  51  40     0.981099912001   109.42427002   300.08109737
 H     57  51  40     0.979901147027   109.48019166    60.03077354
 H     57  51  40     0.979609757169   109.46865333   180.12611552
 F     42  41  35     1.320838697942   110.08123284    59.27609760
 F     42  41  35     1.304082980078   112.56672208   179.41675172
 F     42  41  35     1.313446177069   111.85662648   302.67613826
 F     44  43  37     1.312405124433   109.59829306   268.87376673
 F     44  43  37     1.308588165788   112.87322773   148.06856799
 F     44  43  37     1.325896662063   111.49084465    27.37651714

---------------------------
INTERNAL COORDINATES (A.U.)
---------------------------
 Cu     0   0   0     0.000000000000     0.00000000     0.00000000
 O      1   0   0     3.727695641220     0.00000000     0.00000000
 O      1   2   0     3.749711829597   166.11237228     0.00000000
 O      1   2   3     3.740146128314    90.07770835    80.16607040
 O      1   2   4     3.730059907372    88.32122039   193.59541285
 O      1   2   5     3.933847784783    99.01879534   261.30035288
 O      6   1   2     5.395193216248   108.64365451     1.98702110
 C      2   1   5     2.350964925448   121.37211734   278.43485852
 C      8   2   1     2.895410202025   114.60147822   172.95644703
 C      4   1   2     2.340600370229   122.99656006   274.33741762
 C     10   4   1     2.905539497619   115.71142652   185.99924906
 C      6   1   2     2.686785971525   132.16144548    63.66538320
 H     12   6   1     1.871007012234   109.45533912   183.77243415
 H     12   6   1     1.870011736443   109.42397712    65.54653834
 C      7   6   1     2.694261047353    57.68632984    92.73735306
 H     15   7   6     1.871525924454   109.85735887   268.89618308
 H     15   7   6     1.870591720679   109.83475393   149.94049878
 C      7   6   1     2.724566730995   150.81541993    10.19866134
 H     18   7   6     1.890878769827   109.86249063    22.77444026
 C     18   7   6     2.848067083617   110.18587741   143.96534670
 H     20  18   7     1.852902751487   109.48895605   297.25334384
 H     20  18   7     1.851212920577   109.53056767   177.26738103
 H     20  18   7     1.851425908504   109.48093787    57.20437033
 C     18   7   6     2.882609758010   106.15425969   263.93528538
 H     24  18   7     1.854010143696   109.42427002    59.91890263
 H     24  18   7     1.851744806196   109.48019166   299.96922646
 H     24  18   7     1.851194159167   109.46865333   179.87388448
 F      9   8   2     2.496023406196   110.08123284   300.72390240
 F      9   8   2     2.464359688255   112.56672208   180.58324828
 F      9   8   2     2.482053566307   111.85662648    57.32386174
 F     11  10   4     2.480086261932   109.59829306    91.12623327
 F     11  10   4     2.472873255430   112.87322773   211.93143201
 F     11  10   4     2.505581573180   111.49084465   332.62348286
 Cu     1   2   8     5.157749833358    83.89418204     2.57984780
 O     34   1   2     3.727695641220    83.89418204   180.00000000
 O      8   2   1     2.351779048189   129.54860593   355.01700499
 O     34   1   2     3.740146128314    82.31212243   270.90625617
 O     10   4   1     2.373185493001   129.73854588     3.95456838
 O     34   1   2     3.933847784783   175.94593890   316.10852543
 O     39  34  35     5.395193216248   108.64365451   358.01297890
 C     35  34   1     2.350964925448   121.37211734   357.42015220
 C     41  35  34     2.895410202025   114.60147822   187.04355297
 C     37  34   1     2.340600370229   122.99656006     1.83455019
 C     43  37  34     2.905539497619   115.71142652   174.00075094
 C     39  34  35     2.686785971525   132.16144548   296.33461680
 H     45  39  34     1.871007012234   109.45533912   176.22756585
 H     45  39  34     1.870011736443   109.42397712   294.45346166
 C     40  39  34     2.694261047353    57.68632984   267.26264694
 H     48  40  39     1.871525924454   109.85735887    91.10381692
 H     48  40  39     1.870591720679   109.83475393   210.05950122
 C     40  39  34     2.724566730995   150.81541993   349.80133866
 H     51  40  39     1.890878769827   109.86249063   337.22555974
 C     51  40  39     2.848067083617   110.18587741   216.03465330
 H     53  51  40     1.852902751487   109.48895605    62.74665616
 H     53  51  40     1.851212920577   109.53056767   182.73261897
 H     53  51  40     1.851425908504   109.48093787   302.79562967
 C     51  40  39     2.882609758010   106.15425969    96.06471462
 H     57  51  40     1.854010143696   109.42427002   300.08109737
 H     57  51  40     1.851744806196   109.48019166    60.03077354
 H     57  51  40     1.851194159167   109.46865333   180.12611552
 F     42  41  35     2.496023406196   110.08123284    59.27609760
 F     42  41  35     2.464359688255   112.56672208   179.41675172
 F     42  41  35     2.482053566307   111.85662648   302.67613826
 F     44  43  37     2.480086261932   109.59829306   268.87376673
 F     44  43  37     2.472873255430   112.87322773   148.06856799
 F     44  43  37     2.505581573180   111.49084465    27.37651714

---------------------
BASIS SET INFORMATION
---------------------
There are 5 groups of distinct atoms

 Group   1 Type Cu  : 14s9p5d1f contracted to 9s5p2d1f pattern {611111111/51111/41/1}
 Group   2 Type O   : 7s4p1d contracted to 3s2p1d pattern {511/31/1}
 Group   3 Type C   : 7s4p1d contracted to 3s2p1d pattern {511/31/1}
 Group   4 Type H   : 4s1p contracted to 2s1p pattern {31/1}
 Group   5 Type F   : 7s4p1d contracted to 3s2p1d pattern {511/31/1}

Atom   0Cu   basis set group =>   1
Atom   1O    basis set group =>   2
Atom   2O    basis set group =>   2
Atom   3O    basis set group =>   2
Atom   4O    basis set group =>   2
Atom   5O    basis set group =>   2
Atom   6O    basis set group =>   2
Atom   7C    basis set group =>   3
Atom   8C    basis set group =>   3
Atom   9C    basis set group =>   3
Atom  10C    basis set group =>   3
Atom  11C    basis set group =>   3
Atom  12H    basis set group =>   4
Atom  13H    basis set group =>   4
Atom  14C    basis set group =>   3
Atom  15H    basis set group =>   4
Atom  16H    basis set group =>   4
Atom  17C    basis set group =>   3
Atom  18H    basis set group =>   4
Atom  19C    basis set group =>   3
Atom  20H    basis set group =>   4
Atom  21H    basis set group =>   4
Atom  22H    basis set group =>   4
Atom  23C    basis set group =>   3
Atom  24H    basis set group =>   4
Atom  25H    basis set group =>   4
Atom  26H    basis set group =>   4
Atom  27F    basis set group =>   5
Atom  28F    basis set group =>   5
Atom  29F    basis set group =>   5
Atom  30F    basis set group =>   5
Atom  31F    basis set group =>   5
Atom  32F    basis set group =>   5
Atom  33Cu   basis set group =>   1
Atom  34O    basis set group =>   2
Atom  35O    basis set group =>   2
Atom  36O    basis set group =>   2
Atom  37O    basis set group =>   2
Atom  38O    basis set group =>   2
Atom  39O    basis set group =>   2
Atom  40C    basis set group =>   3
Atom  41C    basis set group =>   3
Atom  42C    basis set group =>   3
Atom  43C    basis set group =>   3
Atom  44C    basis set group =>   3
Atom  45H    basis set group =>   4
Atom  46H    basis set group =>   4
Atom  47C    basis set group =>   3
Atom  48H    basis set group =>   4
Atom  49H    basis set group =>   4
Atom  50C    basis set group =>   3
Atom  51H    basis set group =>   4
Atom  52C    basis set group =>   3
Atom  53H    basis set group =>   4
Atom  54H    basis set group =>   4
Atom  55H    basis set group =>   4
Atom  56C    basis set group =>   3
Atom  57H    basis set group =>   4
Atom  58H    basis set group =>   4
Atom  59H    basis set group =>   4
Atom  60F    basis set group =>   5
Atom  61F    basis set group =>   5
Atom  62F    basis set group =>   5
Atom  63F    basis set group =>   5
Atom  64F    basis set group =>   5
Atom  65F    basis set group =>   5
---------------------------------
AUXILIARY/J BASIS SET INFORMATION
---------------------------------
There are 5 groups of distinct atoms

 Group   1 Type Cu  : 19s5p5d3f3g contracted to 19s5p5d3f3g pattern {1111111111111111111/11111/11111/111/111}
 Group   2 Type O   : 12s5p4d2f1g contracted to 12s5p4d2f1g pattern {111111111111/11111/1111/11/1}
 Group   3 Type C   : 12s5p4d2f1g contracted to 12s5p4d2f1g pattern {111111111111/11111/1111/11/1}
 Group   4 Type H   : 5s2p1d contracted to 5s2p1d pattern {11111/11/1}
 Group   5 Type F   : 12s5p4d2f1g contracted to 12s5p4d2f1g pattern {111111111111/11111/1111/11/1}

Atom   0Cu   basis set group =>   1
Atom   1O    basis set group =>   2
Atom   2O    basis set group =>   2
Atom   3O    basis set group =>   2
Atom   4O    basis set group =>   2
Atom   5O    basis set group =>   2
Atom   6O    basis set group =>   2
Atom   7C    basis set group =>   3
Atom   8C    basis set group =>   3
Atom   9C    basis set group =>   3
Atom  10C    basis set group =>   3
Atom  11C    basis set group =>   3
Atom  12H    basis set group =>   4
Atom  13H    basis set group =>   4
Atom  14C    basis set group =>   3
Atom  15H    basis set group =>   4
Atom  16H    basis set group =>   4
Atom  17C    basis set group =>   3
Atom  18H    basis set group =>   4
Atom  19C    basis set group =>   3
Atom  20H    basis set group =>   4
Atom  21H    basis set group =>   4
Atom  22H    basis set group =>   4
Atom  23C    basis set group =>   3
Atom  24H    basis set group =>   4
Atom  25H    basis set group =>   4
Atom  26H    basis set group =>   4
Atom  27F    basis set group =>   5
Atom  28F    basis set group =>   5
Atom  29F    basis set group =>   5
Atom  30F    basis set group =>   5
Atom  31F    basis set group =>   5
Atom  32F    basis set group =>   5
Atom  33Cu   basis set group =>   1
Atom  34O    basis set group =>   2
Atom  35O    basis set group =>   2
Atom  36O    basis set group =>   2
Atom  37O    basis set group =>   2
Atom  38O    basis set group =>   2
Atom  39O    basis set group =>   2
Atom  40C    basis set group =>   3
Atom  41C    basis set group =>   3
Atom  42C    basis set group =>   3
Atom  43C    basis set group =>   3
Atom  44C    basis set group =>   3
Atom  45H    basis set group =>   4
Atom  46H    basis set group =>   4
Atom  47C    basis set group =>   3
Atom  48H    basis set group =>   4
Atom  49H    basis set group =>   4
Atom  50C    basis set group =>   3
Atom  51H    basis set group =>   4
Atom  52C    basis set group =>   3
Atom  53H    basis set group =>   4
Atom  54H    basis set group =>   4
Atom  55H    basis set group =>   4
Atom  56C    basis set group =>   3
Atom  57H    basis set group =>   4
Atom  58H    basis set group =>   4
Atom  59H    basis set group =>   4
Atom  60F    basis set group =>   5
Atom  61F    basis set group =>   5
Atom  62F    basis set group =>   5
Atom  63F    basis set group =>   5
Atom  64F    basis set group =>   5
Atom  65F    basis set group =>   5


           ************************************************************
           *        Program running with 16 parallel MPI-processes    *
           *              working on a common directory               *
           ************************************************************
------------------------------------------------------------------------------
                             ORCA STARTUP CALCULATIONS
                           -- RI-GTO INTEGRALS CHOSEN --
------------------------------------------------------------------------------
------------------------------------------------------------------------------
                   ___                                                        
                  /   \      - P O W E R E D   B Y -                         
                 /     \                                                     
                 |  |  |   _    _      __       _____    __    __             
                 |  |  |  | |  | |    /  \     |  _  \  |  |  /  |          
                  \  \/   | |  | |   /    \    | | | |  |  | /  /          
                 / \  \   | |__| |  /  /\  \   | |_| |  |  |/  /          
                |  |  |   |  __  | /  /__\  \  |    /   |      \           
                |  |  |   | |  | | |   __   |  |    \   |  |\   \          
                \     /   | |  | | |  |  |  |  | |\  \  |  | \   \       
                 \___/    |_|  |_| |__|  |__|  |_| \__\ |__|  \__/        
                                                                              
                      - O R C A' S   B I G   F R I E N D -                    
                                      &                                       
                       - I N T E G R A L  F E E D E R -                       
                                                                              
 v1 FN, 2020, v2 2021, v3 2022-2024                                           
------------------------------------------------------------------------------


----------------------
SHARK INTEGRAL PACKAGE
----------------------

Number of atoms                             ...     66
Number of basis functions                   ...    780
Number of shells                            ...    352
Maximum angular momentum                    ...      3
Integral batch strategy                     ... SHARK/LIBINT Hybrid
RI-J (if used) integral strategy            ... SPLIT-RIJ (Revised 2003 algorithm where possible)
Printlevel                                  ...      1
Contraction scheme used                     ... SEGMENTED contraction
Prescreening option                         ... SCHWARTZ
   Thresh                                   ... 2.500e-11
   Tcut                                     ... 2.500e-12
   Tpresel                                  ... 2.500e-12 
Coulomb Range Separation                    ... NOT USED
Exchange Range Separation                   ... NOT USED
Multipole approximations                    ... NOT USED
Finite Nucleus Model                        ... NOT USED
CABS basis                                  ... NOT available
Auxiliary Coulomb fitting basis             ... AVAILABLE
   # of basis functions in Aux-J            ...   3506
   # of shells in Aux-J                     ...   1254
   Maximum angular momentum in Aux-J        ...      4
Auxiliary J/K fitting basis                 ... NOT available
Auxiliary Correlation fitting basis         ... NOT available
Auxiliary 'external' fitting basis          ... NOT available

Checking pre-screening integrals            ... done (  0.0 sec) Dimension = 352
   => SHARK Basis and OBASIS are compatible. Storing Pre-screening
Shell pair information
Shell pair cut-off parameter TPreSel        ...   2.5e-12
Total number of shell pairs                 ...     62128
Shell pairs after pre-screening             ...     31007
Total number of primitive shell pairs       ...    226802
Primitive shell pairs kept                  ...     65489
          la=0 lb=0:   8936 shell pairs
          la=1 lb=0:  11392 shell pairs
          la=1 lb=1:   3734 shell pairs
          la=2 lb=0:   3762 shell pairs
          la=2 lb=1:   2430 shell pairs
          la=2 lb=2:    374 shell pairs
          la=3 lb=0:    200 shell pairs
          la=3 lb=1:    138 shell pairs
          la=3 lb=2:     38 shell pairs
          la=3 lb=3:      3 shell pairs

Checking whether 4 symmetric matrices of dimension 780 fit in memory
:Max Core in MB      =   1000.00
 MB in use           =     33.34
 MB left             =    966.66
 MB needed           =      9.30
 Data fit in memory  = YES
Calculating RI/J V-Matrix + Cholesky decomp.... done (  0.5 sec)
Calculating Nuclear repulsion               ... done (  0.0 sec) ENN=   8932.017683851578 Eh

Diagonalization of the overlap matrix:
Smallest eigenvalue                        ... 7.504e-04
Time for diagonalization                   ...    0.044 sec
Threshold for overlap eigenvalues          ... 1.000e-07
Number of eigenvalues below threshold      ... 0
Time for construction of square roots      ...    0.038 sec
Total time needed                          ...    0.090 sec

-------------------
DFT GRID GENERATION
-------------------

General Integration Accuracy     IntAcc      ... 4.388
Radial Grid Type                 RadialGrid  ... OptM3 with GC (2021)
Angular Grid (max. ang.)         AngularGrid ... 4 (Lebedev-302)
Angular grid pruning method      GridPruning ... 4 (adaptive)
Weight generation scheme         WeightScheme... mBecke (2022)
Basis function cutoff            BFCut       ... 1.0000e-11
Integration weight cutoff        WCut        ... 1.0000e-14
Partially contracted basis set               ... off
Rotationally invariant grid construction     ... off
Angular grids for H and He will be reduced by one unit
Core-polarized basis detected: some atoms will have their core
                               angular grid increased.

Total number of grid points                  ...   343604
Total number of batches                      ...     5400
Average number of points per batch           ...       63
Average number of grid points per atom       ...     5206
Grids setup in   0.9 sec
Initializing property integral containers    ... done (  0.0 sec)

SHARK setup successfully completed in   1.7 seconds

Maximum memory used throughout the entire STARTUP-calculation: 95.3 MB


           ************************************************************
           *        Program running with 16 parallel MPI-processes    *
           *              working on a common directory               *
           ************************************************************
------------------------------------------------------------------------------
                          ORCA RELATIVISTIC HAMILTONIAN
------------------------------------------------------------------------------

Relativistic Method            ... DKH
Order of DKH treatment         ...   2
Treatment of potential         ... V(e,N)
Eps parameter for DKH          ...   0.00000000010000
Nucleus model                  ... Point Nucleus
Speed of light used            ... 137.03598950000000


            ************************************************
            *        DOUGLAS-KROLL-HESS HAMILTONIAN        *
            *   Programmed by FN according to literature   *
            *        procedures. Special thanks to         *
            *       B.A. Hess, M. Reiher and A. Wolf       *
            *     University Erlangen-Nuernberg/Bonn       *
            ************************************************

Uncontracting the basis (first version)        ... done
Number of contracted basis functions           ...  780
Number of uncontracted basis functions         ... 1308
Initializing the DKH file                      ... done
Calculating the relativistic integrals         ... done
Storing DKH matrices                           ... done
Computing the DKH transformation               ... done
Storing the transformation variables           ... done
Transforming V and pVp to p**2 space           ... done
First transformation of V and pVp              ... done
Second transformation of Veff                  ... done
Adding kinetic energy                          ... done
Back transformation of Veff to r-space         ... done
Recovering DKH matrices                        ... done
Recontracting the H-matrix (first version)     ... done
Computing the DKH correction to the H-matrix   ... done
Reading the original H-matrix                  ... done
Adding DKH correction to the H-matrix          ... done
Storing the new modified H-matrix              ... done

Maximum memory used throughout the entire REL-calculation: 155.6 MB


           ************************************************************
           *        Program running with 16 parallel MPI-processes    *
           *              working on a common directory               *
           ************************************************************
-------------------------------------------------------------------------------
                                 ORCA GUESS
                   Start orbitals & Density for SCF / CASSCF
-------------------------------------------------------------------------------

------------
SCF SETTINGS
------------
Hamiltonian:
 Density Functional     Method          .... DFT(GTOs)
 Exchange Functional    Exchange        .... B88
   X-Alpha parameter    XAlpha          ....  0.666667
   Becke's b parameter  XBeta           ....  0.004200
 Correlation Functional Correlation     .... P86
 LDA part of GGA corr.  LDAOpt          .... PW91-LDA
 Gradients option       PostSCFGGA      .... off
   NL short-range parameter             ....  4.400000
 RI-approximation to the Coulomb term is turned on
   Number of AuxJ basis functions       .... 3506

Relativistic Settings:
 Scalar relativistic method             .... Douglas-Kroll-Hess
 Order of DKH procedure    Order        ....    2
 Mode of DKH-treatment                  .... V=V(e,N)
 Speed of light used       Velit        ....       137.035989
 Cutoff-constant           Eps          ....            1e-10 


General Settings:
 Integral files         IntName         .... CU2_BP_DKH
 Hartree-Fock type      HFTyp           .... UHF
 Total Charge           Charge          ....   -2
 Multiplicity           Mult            ....    3
 Number of Electrons    NEL             ....  394
 Basis Dimension        Dim             ....  780
 Nuclear Repulsion      ENuc            ....   8932.0176838516 Eh

Convergence Acceleration:
 AO-DIIS                CNVDIIS         .... on
   Start iteration      DIISMaxIt       ....    12
   Startup error        DIISStart       ....  0.200000
   # of expansion vecs  DIISMaxEq       ....     5
   Bias factor          DIISBfac        ....   1.050
   Max. coefficient     DIISMaxC        ....  10.000
 MO-DIIS                CNVKDIIS        .... off
 Trust-Rad. Augm. Hess. CNVTRAH         .... auto
   Auto Start mean grad. ratio tolernc. ....  1.125000
   Auto Start start iteration           ....    50
   Auto Start num. interpolation iter.  ....    10
   Max. Number of Micro iterations      ....    24
   Max. Number of Macro iterations      .... Maxiter - #DIIS iter
   Number of Davidson start vectors     ....     2
   Converg. threshold    (grad. norm)   ....   1.000e-05
   Grad. Scal. Fac. for Micro threshold ....   0.100
   Minimum threshold for Micro iter.    ....   1.000e-02
   NR start threshold (gradient norm)   ....   1.000e-04
   Initial trust radius                 ....   0.400
   Minimum AH scaling param. (alpha)    ....   1.000
   Maximum AH scaling param. (alpha)    .... 1000.000
   Quad. conv. algorithm                .... NR
   White noise on init. David. guess    .... on
   Maximum white noise                  ....   0.010
   Pseudo random numbers                .... off
   Inactive MOs                         .... canonical
   Orbital update algorithm             .... Taylor
   Preconditioner                       .... Diag
   Full preconditioner red. dimension   ....   250
 SOSCF                 CNVSOSCF           .... on
   Start iteration     SOSCFMaxIt         ....   150
   Startup grad/error  SOSCFStart         ....  0.003300
   Hessian update      SOSCFHessUp        .... L-BFGS
   Autom. constraints  SOSCFAutoConstrain .... off
 Level Shifting         CNVShift        .... on
   Level shift para.    LevelShift      ....    0.2500
   Turn off err/grad.   ShiftErr        ....    0.0010
 Zerner damping         CNVZerner       .... off
 Static damping         CNVDamp         .... on
   Fraction old density DampFac         ....    0.7000
   Max. Damping (<1)    DampMax         ....    0.9800
   Min. Damping (>=0)   DampMin         ....    0.0000
   Turn off err/grad.   DampErr         ....    0.1000

SCF Procedure:
 Maximum # iterations   MaxIter         ....   300
 SCF integral mode      SCFMode         .... Direct
   Integral package                     .... SHARK and LIBINT hybrid scheme
 Reset frequency        DirectResetFreq ....    20
 Integral Threshold     Thresh          ....  2.500e-11 Eh
 Primitive CutOff       TCut            ....  2.500e-12 Eh

Convergence Tolerance:
 Convergence Check Mode ConvCheckMode   .... Total+1el-Energy
 Convergence forced     ConvForced      .... 1
 Energy Change          TolE            ....  1.000e-08 Eh
 1-El. energy change                    ....  1.000e-05 Eh
 Orbital Gradient       TolG            ....  1.000e-05
 Orbital Rotation angle TolX            ....  1.000e-05
 DIIS Error             TolErr          ....  5.000e-07


The Flip-Spin feature is operative for generating broken symmetry solutions
List of atoms to flip:
 Cu0
We will now do a high-spin calculation with                 Ms=  1.0
and then try to converge to the broken symmetry state with Ms=  0.0

------------------------------
INITIAL GUESS: MODEL POTENTIAL
------------------------------
Loading DKH relativistic densities                 ... done
Calculating cut-offs                               ... done
Initializing the effective Hamiltonian             ... done
Setting up the integral package (SHARK)            ... done
Starting the Coulomb interaction                   ... done (   0.2 sec)
Making the grid                                    ... done (   0.3 sec)
Mapping shells                                     ... done
Starting the XC term evaluation                    ... done (   0.1 sec)
  promolecular density results
     # of electrons  =    391.989464720
     EX              =   -452.643358477
     EC              =    -15.914559501
     EX+EC           =   -468.557917977
Transforming the Hamiltonian                       ... done (   0.0 sec)
Diagonalizing the Hamiltonian                      ... done (   0.0 sec)
Back transforming the eigenvectors                 ... done (   0.1 sec)
Now organizing SCF variables                       ... done
                      ------------------
                      INITIAL GUESS DONE (   0.9 sec)
                      ------------------
             **** ENERGY FILE WAS UPDATED (CU2_BP_DKH.en.tmp) ****
Finished Guess after   1.1 sec
Maximum memory used throughout the entire GUESS-calculation: 47.3 MB


           ************************************************************
           *        Program running with 16 parallel MPI-processes    *
           *              working on a common directory               *
           ************************************************************

-------------------------------------------------------------------------------------------
                                      ORCA LEAN-SCF
                              memory conserving SCF solver
-------------------------------------------------------------------------------------------

                     ******************************************
                               F L I P    S P I N
                           -----------------------------
                            High-Spin SCF calculation
                                S(HS) =   1.0
                      ******************************************
 ----------------------------------------D-I-I-S--------------------------------------------
Iteration    Energy (Eh)           Delta-E    RMSDP     MaxDP     DIISErr   Damp  Time(sec)
-------------------------------------------------------------------------------------------
               ***  Starting incremental Fock matrix formation  ***
    1    -6107.7794479375315859     0.00e+00  6.21e-03  1.35e-01  1.59e-01  0.700   1.6
Warning: op=0 Small HOMO/LUMO gap (   0.013) - skipping pre-diagonalization
         Will do a full diagonalization
    2    -6108.5688401406114281    -7.89e-01  3.14e-03  8.38e-02  5.14e-02  0.700   2.0
                               ***Turning on AO-DIIS***
    3    -6108.7660577973529143    -1.97e-01  1.69e-03  4.75e-02  3.38e-02  0.700   1.7
    4    -6108.9061650379662751    -1.40e-01  4.21e-03  1.86e-01  3.05e-02  0.000   1.7
    5    -6109.2641970232962194    -3.58e-01  1.18e-03  2.58e-02  3.57e-02  0.000   1.7
    6    -6109.2843877570958284    -2.02e-02  7.44e-04  1.98e-02  1.46e-02  0.000   1.7
    7    -6109.2898539032976259    -5.47e-03  6.00e-04  1.79e-02  1.95e-02  0.000   1.7
    8    -6109.2961312092284061    -6.28e-03  5.59e-04  1.73e-02  1.55e-02  0.000   1.7
    9    -6109.3016155623245140    -5.48e-03  5.82e-04  2.97e-02  9.59e-03  0.000   1.6
   10    -6109.3052638918688899    -3.65e-03  5.05e-04  1.84e-02  1.04e-02  0.000   1.7
   11    -6109.3102769950965012    -5.01e-03  4.98e-04  1.94e-02  6.16e-03  0.000   1.6
   12    -6109.3138284386841406    -3.55e-03  4.89e-04  2.00e-02  7.20e-03  0.000   1.6
   13    -6109.3164475234298152    -2.62e-03  4.87e-04  2.11e-02  1.05e-02  0.000   1.6
   14    -6109.3173393938031950    -8.92e-04  4.68e-04  2.15e-02  1.48e-02  0.000   1.6
   15    -6109.3168332948735042     5.06e-04  4.58e-04  2.10e-02  1.94e-02  0.000   1.7
   16    -6109.3134967109090212     3.34e-03  4.21e-04  1.89e-02  2.43e-02  0.000   1.6
   17    -6109.3101566050045221     3.34e-03  3.71e-04  1.60e-02  2.73e-02  0.000   1.7
   18    -6109.3093907394722919     7.66e-04  3.41e-04  1.45e-02  2.98e-02  0.000   1.6
   19    -6109.3076171491902642     1.77e-03  3.39e-04  1.39e-02  3.40e-02  0.000   1.6
   20    -6109.3096485310943535    -2.03e-03  6.26e-04  1.43e-02  2.72e-02  0.000   1.6
               *** Restarting incremental Fock matrix formation ***
                             ****Resetting DIIS****
Warning: op=0 Small HOMO/LUMO gap (   0.078) - skipping pre-diagonalization
         Will do a full diagonalization
   21    -6109.3254256555574102    -1.58e-02  5.75e-03  2.32e-01  1.38e-02  0.000   2.2
   22    -6108.8948281905122712     4.31e-01  1.14e-03  3.37e-02  1.26e-01  0.000   1.6
   23    -6109.0707953565488424    -1.76e-01  3.31e-04  1.37e-02  8.58e-02  0.700   1.6
   24    -6109.1017739667768183    -3.10e-02  1.95e-03  8.39e-02  7.98e-02  0.000   1.6
   25    -6109.2436504771267209    -1.42e-01  1.08e-03  4.38e-02  5.04e-02  0.000   1.6
   26    -6109.2892405700258678    -4.56e-02  2.27e-03  8.34e-02  3.46e-02  0.000   1.6
   27    -6109.3333145795677410    -4.41e-02  1.13e-03  2.61e-02  9.49e-03  0.000   1.6
   28    -6109.3263291441653564     6.99e-03  9.29e-04  4.98e-02  2.30e-02  0.000   1.6
   29    -6109.3212069077271735     5.12e-03  3.76e-04  1.91e-02  4.19e-02  0.000   1.6
   30    -6109.3332991615789069    -1.21e-02  3.24e-04  1.61e-02  1.70e-02  0.000   1.6
   31    -6109.3361969886500447    -2.90e-03  1.29e-03  4.00e-02  9.73e-03  0.000   1.6
   32    -6109.3159667280669964     2.02e-02  7.76e-04  2.57e-02  3.97e-02  0.000   1.7
   33    -6109.3344207931695564    -1.85e-02  3.43e-04  1.64e-02  1.55e-02  0.000   1.8
   34    -6109.3369179652745515    -2.50e-03  2.53e-04  7.16e-03  6.67e-03  0.000   1.6
   35    -6109.3371133510427171    -1.95e-04  2.57e-04  1.51e-02  8.43e-03  0.000   1.6
   36    -6109.3372659641499922    -1.53e-04  1.53e-04  3.57e-03  8.09e-03  0.000   1.6
   37    -6109.3373612815084925    -9.53e-05  1.01e-04  3.40e-03  5.31e-03  0.000   1.7
                              *** Initializing SOSCF ***
---------------------------------------S-O-S-C-F--------------------------------------
Iteration    Energy (Eh)           Delta-E    RMSDP     MaxDP     MaxGrad    Time(sec)
--------------------------------------------------------------------------------------
   38    -6109.3376396849907906    -2.78e-04  8.14e-05  2.87e-03  3.08e-03     2.0
               *** Restarting incremental Fock matrix formation ***
   39    -6109.3377152337998268    -7.55e-05  1.98e-04  1.24e-02  2.64e-03     1.6
   40    -6109.3366536913399614     1.06e-03  1.68e-04  1.06e-02  1.91e-02     1.5
   41    -6109.3376452935681300    -9.92e-04  3.02e-04  9.61e-03  3.06e-03     1.5
   42    -6109.3360251047433849     1.62e-03  2.44e-04  7.84e-03  9.56e-03     1.5
   43    -6109.3377499210855603    -1.72e-03  5.33e-05  1.80e-03  7.12e-04     1.5
   44    -6109.3377096305412124     4.03e-05  3.93e-05  1.29e-03  1.77e-03     1.5
   45    -6109.3377548450753238    -4.52e-05  2.11e-05  4.72e-04  2.05e-04     1.6
   46    -6109.3377503460560547     4.50e-06  1.34e-05  2.73e-04  3.90e-04     1.5
   47    -6109.3377562042078353    -5.86e-06  8.26e-06  1.62e-04  6.71e-05     1.4
   48    -6109.3377562792647950    -7.51e-08  7.31e-06  1.82e-04  7.29e-05     1.4
   49    -6109.3377567844327132    -5.05e-07  1.85e-05  4.16e-04  5.43e-05     1.4
   50    -6109.3377572910030722    -5.07e-07  3.12e-05  7.02e-04  4.23e-05     1.5
   51    -6109.3377576335133199    -3.43e-07  1.37e-05  3.10e-04  8.95e-05     1.5
   52    -6109.3377577774826932    -1.44e-07  4.27e-06  1.08e-04  5.36e-05     1.5
   53    -6109.3377579500902357    -1.73e-07  2.11e-06  4.43e-05  1.79e-05     1.5
   54    -6109.3377579462467111     3.84e-09  1.72e-06  3.31e-05  1.10e-05     1.5
                 **** Energy Check signals convergence ****

               *****************************************************
               *                     SUCCESS                       *
               *           SCF CONVERGED AFTER  54 CYCLES          *
               *****************************************************

             **** ENERGY FILE WAS UPDATED (CU2_BP_DKH.en.tmp) ****

----------------
TOTAL SCF ENERGY
----------------

Total Energy       :      -6109.33775794763278 Eh         -166243.53205 eV

Components:
Nuclear Repulsion  :       8932.01768385157811 Eh          243052.55773 eV
Electronic Energy  :     -15041.35544179921089 Eh         -409296.08978 eV
One Electron Energy:     -26381.66286863064306 Eh         -717881.54305 eV
Two Electron Energy:      11340.30742683143217 Eh          308585.45327 eV

Virial components:
Potential Energy   :     -12400.72737353900629 Eh         -337440.94700 eV
Kinetic Energy     :       6291.38961559137351 Eh          171197.41495 eV
Virial Ratio       :          1.97106333119275

DFT components:
N(Alpha)           :      197.999696156987 electrons
N(Beta)            :      195.999687197259 electrons
N(Total)           :      393.999383354247 electrons
E(X)               :     -458.026941435933 Eh       
E(C)               :      -15.968576566182 Eh       
E(XC)              :     -473.995518002115 Eh       

---------------
SCF CONVERGENCE
---------------

  Last Energy change         ...   -3.8435e-09  Tolerance :   1.0000e-08
  Last MAX-Density change    ...    3.3073e-05  Tolerance :   1.0000e-07
  Last RMS-Density change    ...    1.7214e-06  Tolerance :   5.0000e-09
  Last DIIS Error            ...    3.0808e-03  Tolerance :   5.0000e-07
  Last Orbital Gradient      ...    1.1028e-05  Tolerance :   1.0000e-05
  Last Orbital Rotation      ...    2.4265e-04  Tolerance :   1.0000e-05


----------------------
UHF SPIN CONTAMINATION
----------------------

Warning: in a DFT calculation there is little theoretical justification to 
         calculate <S**2> as in Hartree-Fock theory. We will do it anyways
         but you should keep in mind that the values have only limited relevance

Expectation value of <S**2>     :     2.004145
Ideal value S*(S+1) for S=1.0   :     2.000000
Deviation                       :     0.004145


                    ********************************
                    * MULLIKEN POPULATION ANALYSIS *
                    ********************************

--------------------------------------------
MULLIKEN ATOMIC CHARGES AND SPIN POPULATIONS
--------------------------------------------
   0 Cu:    0.457558    0.523314
   1 O :   -0.285858    0.039714
   2 O :   -0.276931    0.040157
   3 O :   -0.268718    0.037495
   4 O :   -0.307051    0.050712
   5 O :   -0.493593    0.273564
   6 O :   -0.369204    0.000779
   7 C :    0.113814   -0.005445
   8 C :    0.389337    0.013657
   9 C :    0.128484   -0.005339
  10 C :    0.376956    0.014328
  11 C :    0.160307   -0.010220
  12 H :   -0.012425    0.016470
  13 H :    0.002620    0.006498
  14 C :    0.103710    0.001693
  15 H :    0.036621    0.000680
  16 H :   -0.036161   -0.000626
  17 C :    0.041869   -0.000111
  18 H :    0.043127   -0.000042
  19 C :   -0.098210    0.000159
  20 H :    0.036417   -0.000107
  21 H :    0.015618   -0.000036
  22 H :    0.029063   -0.000023
  23 C :   -0.088228   -0.000013
  24 H :    0.079860    0.000029
  25 H :    0.028165   -0.000003
  26 H :    0.014375    0.000009
  27 F :   -0.150379    0.000579
  28 F :   -0.116995    0.000332
  29 F :   -0.139158    0.000337
  30 F :   -0.140653    0.000655
  31 F :   -0.129418    0.000333
  32 F :   -0.144916    0.000513
  33 Cu:    0.457556    0.523269
  34 O :   -0.285868    0.039681
  35 O :   -0.276939    0.040133
  36 O :   -0.268726    0.037468
  37 O :   -0.307070    0.050687
  38 O :   -0.493570    0.273635
  39 O :   -0.369202    0.000779
  40 C :    0.113811   -0.005445
  41 C :    0.389337    0.013656
  42 C :    0.128477   -0.005339
  43 C :    0.376955    0.014328
  44 C :    0.160320   -0.010224
  45 H :   -0.012422    0.016473
  46 H :    0.002625    0.006505
  47 C :    0.103710    0.001690
  48 H :    0.036622    0.000680
  49 H :   -0.036160   -0.000627
  50 C :    0.041865   -0.000111
  51 H :    0.043129   -0.000042
  52 C :   -0.098212    0.000159
  53 H :    0.036418   -0.000107
  54 H :    0.015620   -0.000036
  55 H :    0.029064   -0.000023
  56 C :   -0.088231   -0.000013
  57 H :    0.079862    0.000029
  58 H :    0.028166   -0.000003
  59 H :    0.014377    0.000009
  60 F :   -0.150381    0.000579
  61 F :   -0.116994    0.000331
  62 F :   -0.139159    0.000337
  63 F :   -0.140653    0.000654
  64 F :   -0.129416    0.000332
  65 F :   -0.144918    0.000514
Sum of atomic charges         :   -2.0000000
Sum of atomic spin populations:    2.0000000

-----------------------------------------------------
MULLIKEN REDUCED ORBITAL CHARGES AND SPIN POPULATIONS
-----------------------------------------------------
CHARGE
  0 Cus       :     6.602625  s :     6.602625
      pz      :     4.174024  p :    12.556067
      px      :     4.177090
      py      :     4.204953
      dz2     :     1.844476  d :     9.383459
      dxz     :     1.797409
      dyz     :     1.948656
      dx2y2   :     1.814967
      dxy     :     1.977952
      f0      :     0.000049  f :     0.000292
      f+1     :     0.000070
      f-1     :     0.000024
      f+2     :     0.000054
      f-2     :     0.000024
      f+3     :     0.000035
      f-3     :     0.000034

  1 O s       :     3.765009  s :     3.765009
      pz      :     1.578149  p :     4.505450
      px      :     1.597731
      py      :     1.329570
      dz2     :     0.001826  d :     0.015399
      dxz     :     0.000593
      dyz     :     0.003976
      dx2y2   :     0.005119
      dxy     :     0.003884

  2 O s       :     3.764170  s :     3.764170
      pz      :     1.501097  p :     4.497360
      px      :     1.521558
      py      :     1.474706
      dz2     :     0.002235  d :     0.015400
      dxz     :     0.001291
      dyz     :     0.003973
      dx2y2   :     0.003601
      dxy     :     0.004300

  3 O s       :     3.763619  s :     3.763619
      pz      :     1.500167  p :     4.489370
      px      :     1.541667
      py      :     1.447537
      dz2     :     0.002423  d :     0.015728
      dxz     :     0.001438
      dyz     :     0.004902
      dx2y2   :     0.003540
      dxy     :     0.003424

  4 O s       :     3.769340  s :     3.769340
      pz      :     1.635354  p :     4.522965
      px      :     1.528465
      py      :     1.359146
      dz2     :     0.002129  d :     0.014746
      dxz     :     0.000591
      dyz     :     0.003336
      dx2y2   :     0.004506
      dxy     :     0.004184

  5 O s       :     3.854496  s :     3.854496
      pz      :     1.401069  p :     4.630817
      px      :     1.830183
      py      :     1.399566
      dz2     :     0.002466  d :     0.008280
      dxz     :     0.001360
      dyz     :     0.003025
      dx2y2   :     0.000817
      dxy     :     0.000612

  6 O s       :     3.802113  s :     3.802113
      pz      :     1.583559  p :     4.552475
      px      :     1.173927
      py      :     1.794990
      dz2     :     0.002126  d :     0.014616
      dxz     :     0.005885
      dyz     :     0.002051
      dx2y2   :     0.002169
      dxy     :     0.002386

  7 C s       :     3.052668  s :     3.052668
      pz      :     0.898723  p :     2.692998
      px      :     0.898035
      py      :     0.896240
      dz2     :     0.011529  d :     0.140521
      dxz     :     0.010604
      dyz     :     0.036336
      dx2y2   :     0.042544
      dxy     :     0.039507

  8 C s       :     2.966638  s :     2.966638
      pz      :     0.806744  p :     2.453756
      px      :     0.913868
      py      :     0.733144
      dz2     :     0.041429  d :     0.190269
      dxz     :     0.033022
      dyz     :     0.037530
      dx2y2   :     0.040978
      dxy     :     0.037310

  9 C s       :     3.053117  s :     3.053117
      pz      :     0.897006  p :     2.678976
      px      :     0.894744
      py      :     0.887226
      dz2     :     0.028916  d :     0.139422
      dxz     :     0.009792
      dyz     :     0.039537
      dx2y2   :     0.027668
      dxy     :     0.033509

 10 C s       :     2.972605  s :     2.972605
      pz      :     0.964193  p :     2.462564
      px      :     0.756485
      py      :     0.741886
      dz2     :     0.033050  d :     0.187875
      dxz     :     0.038006
      dyz     :     0.028713
      dx2y2   :     0.038580
      dxy     :     0.049526

 11 C s       :     2.899608  s :     2.899608
      pz      :     0.888324  p :     2.868530
      px      :     1.014848
      py      :     0.965358
      dz2     :     0.013938  d :     0.071555
      dxz     :     0.022532
      dyz     :     0.013351
      dx2y2   :     0.016683
      dxy     :     0.005050

 12 H s       :     0.990267  s :     0.990267
      pz      :     0.005322  p :     0.022158
      px      :     0.007125
      py      :     0.009711

 13 H s       :     0.975083  s :     0.975083
      pz      :     0.006381  p :     0.022297
      px      :     0.010207
      py      :     0.005710

 14 C s       :     2.919809  s :     2.919809
      pz      :     0.965426  p :     2.909455
      px      :     0.846177
      py      :     1.097852
      dz2     :     0.011279  d :     0.067026
      dxz     :     0.013822
      dyz     :     0.014168
      dx2y2   :     0.017821
      dxy     :     0.009936

 15 H s       :     0.941461  s :     0.941461
      pz      :     0.005805  p :     0.021918
      px      :     0.003640
      py      :     0.012473

 16 H s       :     1.013222  s :     1.013222
      pz      :     0.009548  p :     0.022939
      px      :     0.004590
      py      :     0.008801

 17 C s       :     3.057946  s :     3.057946
      pz      :     0.953484  p :     2.828702
      px      :     0.853230
      py      :     1.021987
      dz2     :     0.009428  d :     0.071483
      dxz     :     0.018357
      dyz     :     0.015736
      dx2y2   :     0.016136
      dxy     :     0.011826

 18 H s       :     0.936737  s :     0.936737
      pz      :     0.006069  p :     0.020136
      px      :     0.003764
      py      :     0.010302

 19 C s       :     2.888438  s :     2.888438
      pz      :     1.052193  p :     3.172561
      px      :     1.053259
      py      :     1.067109
      dz2     :     0.003274  d :     0.037210
      dxz     :     0.013045
      dyz     :     0.007116
      dx2y2   :     0.010150
      dxy     :     0.003626

 20 H s       :     0.937661  s :     0.937661
      pz      :     0.008863  p :     0.025921
      px      :     0.010422
      py      :     0.006636

 21 H s       :     0.958376  s :     0.958376
      pz      :     0.008290  p :     0.026006
      px      :     0.010451
      py      :     0.007265

 22 H s       :     0.945857  s :     0.945857
      pz      :     0.007767  p :     0.025079
      px      :     0.006949
      py      :     0.010364

 23 C s       :     2.902707  s :     2.902707
      pz      :     1.054664  p :     3.149828
      px      :     1.006190
      py      :     1.088974
      dz2     :     0.002470  d :     0.035693
      dxz     :     0.008131
      dyz     :     0.012250
      dx2y2   :     0.008503
      dxy     :     0.004338

 24 H s       :     0.895240  s :     0.895240
      pz      :     0.008756  p :     0.024899
      px      :     0.006873
      py      :     0.009271

 25 H s       :     0.946460  s :     0.946460
      pz      :     0.007662  p :     0.025375
      px      :     0.006884
      py      :     0.010829

 26 H s       :     0.959890  s :     0.959890
      pz      :     0.007889  p :     0.025734
      px      :     0.009967
      py      :     0.007878

 27 F s       :     3.888193  s :     3.888193
      pz      :     1.523026  p :     5.254022
      px      :     1.892187
      py      :     1.838809
      dz2     :     0.003412  d :     0.008163
      dxz     :     0.001800
      dyz     :     0.002301
      dx2y2   :     0.000317
      dxy     :     0.000332

 28 F s       :     3.870735  s :     3.870735
      pz      :     1.884461  p :     5.237501
      px      :     1.866195
      py      :     1.486845
      dz2     :     0.001188  d :     0.008759
      dxz     :     0.000179
      dyz     :     0.001886
      dx2y2   :     0.003196
      dxy     :     0.002311

 29 F s       :     3.883013  s :     3.883013
      pz      :     1.839539  p :     5.247807
      px      :     1.633986
      py      :     1.774282
      dz2     :     0.001118  d :     0.008338
      dxz     :     0.001861
      dyz     :     0.001016
      dx2y2   :     0.001833
      dxy     :     0.002510

 30 F s       :     3.881443  s :     3.881443
      pz      :     1.720226  p :     5.250775
      px      :     1.655088
      py      :     1.875460
      dz2     :     0.001573  d :     0.008436
      dxz     :     0.003168
      dyz     :     0.000823
      dx2y2   :     0.001621
      dxy     :     0.001251

 31 F s       :     3.874448  s :     3.874448
      pz      :     1.846681  p :     5.246434
      px      :     1.771552
      py      :     1.628201
      dz2     :     0.001144  d :     0.008536
      dxz     :     0.000906
      dyz     :     0.001832
      dx2y2   :     0.001902
      dxy     :     0.002752

 32 F s       :     3.881145  s :     3.881145
      pz      :     1.894574  p :     5.255642
      px      :     1.735339
      py      :     1.625730
      dz2     :     0.001151  d :     0.008128
      dxz     :     0.000736
      dyz     :     0.001273
      dx2y2   :     0.001811
      dxy     :     0.003157

 33 Cus       :     6.602614  s :     6.602614
      pz      :     4.174021  p :    12.556047
      px      :     4.177086
      py      :     4.204940
      dz2     :     1.844490  d :     9.383491
      dxz     :     1.797499
      dyz     :     1.948629
      dx2y2   :     1.814906
      dxy     :     1.977966
      f0      :     0.000049  f :     0.000292
      f+1     :     0.000070
      f-1     :     0.000024
      f+2     :     0.000054
      f-2     :     0.000024
      f+3     :     0.000035
      f-3     :     0.000034

 34 O s       :     3.765009  s :     3.765009
      pz      :     1.578148  p :     4.505460
      px      :     1.597743
      py      :     1.329569
      dz2     :     0.001826  d :     0.015399
      dxz     :     0.000593
      dyz     :     0.003976
      dx2y2   :     0.005119
      dxy     :     0.003884

 35 O s       :     3.764170  s :     3.764170
      pz      :     1.501096  p :     4.497369
      px      :     1.521566
      py      :     1.474707
      dz2     :     0.002235  d :     0.015400
      dxz     :     0.001291
      dyz     :     0.003973
      dx2y2   :     0.003601
      dxy     :     0.004300

 36 O s       :     3.763619  s :     3.763619
      pz      :     1.500178  p :     4.489379
      px      :     1.541665
      py      :     1.447537
      dz2     :     0.002423  d :     0.015728
      dxz     :     0.001438
      dyz     :     0.004902
      dx2y2   :     0.003540
      dxy     :     0.003424

 37 O s       :     3.769340  s :     3.769340
      pz      :     1.635369  p :     4.522984
      px      :     1.528467
      py      :     1.359148
      dz2     :     0.002129  d :     0.014746
      dxz     :     0.000591
      dyz     :     0.003336
      dx2y2   :     0.004506
      dxy     :     0.004184

 38 O s       :     3.854500  s :     3.854500
      pz      :     1.401085  p :     4.630790
      px      :     1.830127
      py      :     1.399578
      dz2     :     0.002466  d :     0.008280
      dxz     :     0.001360
      dyz     :     0.003025
      dx2y2   :     0.000817
      dxy     :     0.000612

 39 O s       :     3.802113  s :     3.802113
      pz      :     1.583558  p :     4.552473
      px      :     1.173926
      py      :     1.794989
      dz2     :     0.002126  d :     0.014616
      dxz     :     0.005885
      dyz     :     0.002051
      dx2y2   :     0.002169
      dxy     :     0.002386

 40 C s       :     3.052668  s :     3.052668
      pz      :     0.898724  p :     2.693001
      px      :     0.898035
      py      :     0.896242
      dz2     :     0.011529  d :     0.140521
      dxz     :     0.010604
      dyz     :     0.036337
      dx2y2   :     0.042544
      dxy     :     0.039508

 41 C s       :     2.966638  s :     2.966638
      pz      :     0.806744  p :     2.453756
      px      :     0.913869
      py      :     0.733144
      dz2     :     0.041428  d :     0.190269
      dxz     :     0.033022
      dyz     :     0.037530
      dx2y2   :     0.040978
      dxy     :     0.037311

 42 C s       :     3.053118  s :     3.053118
      pz      :     0.897008  p :     2.678983
      px      :     0.894747
      py      :     0.887227
      dz2     :     0.028916  d :     0.139422
      dxz     :     0.009792
      dyz     :     0.039537
      dx2y2   :     0.027668
      dxy     :     0.033510

 43 C s       :     2.972605  s :     2.972605
      pz      :     0.964193  p :     2.462565
      px      :     0.756485
      py      :     0.741887
      dz2     :     0.033050  d :     0.187875
      dxz     :     0.038006
      dyz     :     0.028713
      dx2y2   :     0.038580
      dxy     :     0.049526

 44 C s       :     2.899611  s :     2.899611
      pz      :     0.888317  p :     2.868516
      px      :     1.014845
      py      :     0.965354
      dz2     :     0.013938  d :     0.071553
      dxz     :     0.022531
      dyz     :     0.013351
      dx2y2   :     0.016683
      dxy     :     0.005050

 45 H s       :     0.990264  s :     0.990264
      pz      :     0.005322  p :     0.022158
      px      :     0.007125
      py      :     0.009711

 46 H s       :     0.975078  s :     0.975078
      pz      :     0.006381  p :     0.022297
      px      :     0.010206
      py      :     0.005710

 47 C s       :     2.919809  s :     2.919809
      pz      :     0.965426  p :     2.909455
      px      :     0.846178
      py      :     1.097851
      dz2     :     0.011279  d :     0.067026
      dxz     :     0.013822
      dyz     :     0.014168
      dx2y2   :     0.017821
      dxy     :     0.009936

 48 H s       :     0.941460  s :     0.941460
      pz      :     0.005805  p :     0.021918
      px      :     0.003640
      py      :     0.012473

 49 H s       :     1.013221  s :     1.013221
      pz      :     0.009548  p :     0.022939
      px      :     0.004590
      py      :     0.008801

[...]
      dxz     :     0.000008
      dyz     :     0.000027
      dx2y2   :     0.000003
      dxy     :     0.000003

 65 F s       :    -0.000014  s :    -0.000014
      pz      :     0.000299  p :     0.000139
      px      :    -0.000147
      py      :    -0.000013
      dz2     :     0.000003  d :     0.000040
      dxz     :     0.000007
      dyz     :     0.000025
      dx2y2   :     0.000001
      dxy     :     0.000005



                      *****************************
                      * MAYER POPULATION ANALYSIS *
                      *****************************

  NA   - Mulliken gross atomic population
  ZA   - Total nuclear charge
  QA   - Mulliken gross atomic charge
  VA   - Mayer's total valence
  BVA  - Mayer's bonded valence
  FA   - Mayer's free valence

  ATOM       NA         ZA         QA         VA         BVA        FA
  0 Cu    28.5476    29.0000     0.4524     3.0845     2.9362     0.1483
  1 O      8.2861     8.0000    -0.2861     2.2607     2.2595     0.0012
  2 O      8.2771     8.0000    -0.2771     2.2619     2.2608     0.0011
  3 O      8.2692     8.0000    -0.2692     2.2736     2.2724     0.0012
  4 O      8.3082     8.0000    -0.3082     2.2396     2.2387     0.0009
  5 O      8.4858     8.0000    -0.4858     2.0664     1.9888     0.0776
  6 O      8.3696     8.0000    -0.3696     2.0946     2.0946     0.0000
  7 C      5.8861     6.0000     0.1139     4.1844     4.1844     0.0000
  8 C      5.6115     6.0000     0.3885     4.4642     4.4640     0.0002
  9 C      5.8725     6.0000     0.1275     4.1653     4.1653     0.0000
 10 C      5.6242     6.0000     0.3758     4.5041     4.5039     0.0002
 11 C      5.8414     6.0000     0.1586     4.0942     4.0941     0.0002
 12 H      1.0112     1.0000    -0.0112     0.9789     0.9786     0.0003
 13 H      0.9952     1.0000     0.0048     0.9760     0.9759     0.0001
 14 C      5.8960     6.0000     0.1040     3.9042     3.9042     0.0000
 15 H      0.9624     1.0000     0.0376     1.0294     1.0294     0.0000
 16 H      1.0356     1.0000    -0.0356     0.9778     0.9778     0.0000
 17 C      5.9582     6.0000     0.0418     4.1911     4.1911    -0.0000
 18 H      0.9565     1.0000     0.0435     1.0113     1.0113     0.0000
 19 C      6.0984     6.0000    -0.0984     3.8918     3.8918     0.0000
 20 H      0.9635     1.0000     0.0365     0.9989     0.9989     0.0000
 21 H      0.9841     1.0000     0.0159     0.9938     0.9938     0.0000
 22 H      0.9709     1.0000     0.0291     1.0113     1.0113     0.0000
 23 C      6.0883     6.0000    -0.0883     3.9182     3.9182    -0.0000
 24 H      0.9198     1.0000     0.0802     1.0261     1.0261     0.0000
 25 H      0.9719     1.0000     0.0281     1.0047     1.0047     0.0000
 26 H      0.9855     1.0000     0.0145     0.9872     0.9872     0.0000
 27 F      9.1506     9.0000    -0.1506     1.2039     1.2039     0.0000
 28 F      9.1172     9.0000    -0.1172     1.2522     1.2522     0.0000
 29 F      9.1394     9.0000    -0.1394     1.2192     1.2192     0.0000
 30 F      9.1410     9.0000    -0.1410     1.2163     1.2163     0.0000
 31 F      9.1298     9.0000    -0.1298     1.2311     1.2311     0.0000
 32 F      9.1453     9.0000    -0.1453     1.2160     1.2160     0.0000
 33 Cu    28.5476    29.0000     0.4524     3.0845     2.9362     0.1483
 34 O      8.2861     8.0000    -0.2861     2.2608     2.2596     0.0012
 35 O      8.2771     8.0000    -0.2771     2.2619     2.2608     0.0011
 36 O      8.2692     8.0000    -0.2692     2.2736     2.2724     0.0012
 37 O      8.3082     8.0000    -0.3082     2.2396     2.2387     0.0009
 38 O      8.4858     8.0000    -0.4858     2.0663     1.9888     0.0775
 39 O      8.3696     8.0000    -0.3696     2.0947     2.0946     0.0000
 40 C      5.8861     6.0000     0.1139     4.1844     4.1843     0.0000
 41 C      5.6115     6.0000     0.3885     4.4642     4.4640     0.0002
 42 C      5.8725     6.0000     0.1275     4.1653     4.1653     0.0000
 43 C      5.6242     6.0000     0.3758     4.5041     4.5039     0.0002
 44 C      5.8414     6.0000     0.1586     4.0943     4.0941     0.0002
 45 H      1.0112     1.0000    -0.0112     0.9789     0.9786     0.0003
 46 H      0.9952     1.0000     0.0048     0.9760     0.9759     0.0001
 47 C      5.8960     6.0000     0.1040     3.9042     3.9042     0.0000
 48 H      0.9624     1.0000     0.0376     1.0294     1.0294     0.0000
 49 H      1.0356     1.0000    -0.0356     0.9779     0.9778     0.0000
 50 C      5.9582     6.0000     0.0418     4.1911     4.1911    -0.0000
 51 H      0.9565     1.0000     0.0435     1.0113     1.0113     0.0000
 52 C      6.0984     6.0000    -0.0984     3.8918     3.8918     0.0000
 53 H      0.9635     1.0000     0.0365     0.9989     0.9989     0.0000
 54 H      0.9841     1.0000     0.0159     0.9938     0.9938     0.0000
 55 H      0.9709     1.0000     0.0291     1.0113     1.0113     0.0000
 56 C      6.0883     6.0000    -0.0883     3.9182     3.9182    -0.0000
 57 H      0.9198     1.0000     0.0802     1.0261     1.0261     0.0000
 58 H      0.9719     1.0000     0.0281     1.0047     1.0047     0.0000
 59 H      0.9855     1.0000     0.0145     0.9872     0.9872     0.0000
 60 F      9.1506     9.0000    -0.1506     1.2039     1.2039     0.0000
 61 F      9.1172     9.0000    -0.1172     1.2522     1.2522     0.0000
 62 F      9.1394     9.0000    -0.1394     1.2192     1.2192     0.0000
 63 F      9.1410     9.0000    -0.1410     1.2164     1.2164     0.0000
 64 F      9.1298     9.0000    -0.1298     1.2311     1.2311     0.0000
 65 F      9.1453     9.0000    -0.1453     1.2160     1.2160     0.0000

  Mayer bond orders larger than 0.100000
B(  0-Cu,  1-O ) :   0.3612 B(  0-Cu,  2-O ) :   0.3699 B(  0-Cu,  3-O ) :   0.3659 
B(  0-Cu,  4-O ) :   0.3761 B(  0-Cu,  5-O ) :   0.4997 B(  0-Cu, 33-Cu) :   0.4759 
B(  1-O ,  7-C ) :   1.6021 B(  1-O , 35-O ) :   0.1570 B(  2-O , 34-O ) :   0.1570 
B(  2-O , 40-C ) :   1.6252 B(  3-O ,  9-C ) :   1.6395 B(  3-O , 37-O ) :   0.1570 
B(  4-O , 36-O ) :   0.1570 B(  4-O , 42-C ) :   1.5707 B(  5-O , 11-C ) :   1.1658 
B(  5-O , 38-O ) :   0.1361 B(  6-O , 14-C ) :   0.9715 B(  6-O , 17-C ) :   1.0345 
B(  7-C ,  8-C ) :   0.8662 B(  7-C , 35-O ) :   1.6252 B(  8-C , 27-F ) :   1.1393 
B(  8-C , 28-F ) :   1.2099 B(  8-C , 29-F ) :   1.1578 B(  9-C , 10-C ) :   0.8677 
B(  9-C , 37-O ) :   1.5707 B( 10-C , 30-F ) :   1.1705 B( 10-C , 31-F ) :   1.1925 
B( 10-C , 32-F ) :   1.1770 B( 11-C , 12-H ) :   0.9317 B( 11-C , 13-H ) :   0.9361 
B( 11-C , 14-C ) :   1.0078 B( 14-C , 15-H ) :   0.9409 B( 14-C , 16-H ) :   0.9256 
B( 17-C , 18-H ) :   0.9513 B( 17-C , 19-C ) :   1.0343 B( 17-C , 23-C ) :   1.0473 
B( 19-C , 20-H ) :   0.9613 B( 19-C , 21-H ) :   0.9571 B( 19-C , 22-H ) :   0.9600 
B( 23-C , 24-H ) :   0.9577 B( 23-C , 25-H ) :   0.9652 B( 23-C , 26-H ) :   0.9616 
B( 33-Cu, 34-O ) :   0.3612 B( 33-Cu, 35-O ) :   0.3699 B( 33-Cu, 36-O ) :   0.3660 
B( 33-Cu, 37-O ) :   0.3761 B( 33-Cu, 38-O ) :   0.4996 B( 34-O , 40-C ) :   1.6021 
B( 36-O , 42-C ) :   1.6395 B( 38-O , 44-C ) :   1.1658 B( 39-O , 47-C ) :   0.9715 
B( 39-O , 50-C ) :   1.0345 B( 40-C , 41-C ) :   0.8662 B( 41-C , 60-F ) :   1.1393 
B( 41-C , 61-F ) :   1.2099 B( 41-C , 62-F ) :   1.1578 B( 42-C , 43-C ) :   0.8677 
B( 43-C , 63-F ) :   1.1705 B( 43-C , 64-F ) :   1.1925 B( 43-C , 65-F ) :   1.1770 
B( 44-C , 45-H ) :   0.9317 B( 44-C , 46-H ) :   0.9361 B( 44-C , 47-C ) :   1.0078 
B( 47-C , 48-H ) :   0.9409 B( 47-C , 49-H ) :   0.9256 B( 50-C , 51-H ) :   0.9513 
B( 50-C , 52-C ) :   1.0343 B( 50-C , 56-C ) :   1.0473 B( 52-C , 53-H ) :   0.9613 
B( 52-C , 54-H ) :   0.9571 B( 52-C , 55-H ) :   0.9600 B( 56-C , 57-H ) :   0.9577 
B( 56-C , 58-H ) :   0.9652 B( 56-C , 59-H ) :   0.9616 

-------
TIMINGS
-------

Total SCF time: 0 days 0 hours 1 min 52 sec 

Total time                  ....     112.330 sec
Sum of individual times     ....     110.536 sec  ( 98.4%)

Fock matrix formation       ....      64.359 sec  ( 57.3%)
  Startup                   ....       1.143 sec  (  1.8% of F)
  Split-RI-J                ....      27.163 sec  ( 42.2% of F)
  XC integration            ....      27.608 sec  ( 42.9% of F)
    Basis function eval.    ....       5.035 sec  ( 18.2% of XC)
    Density eval.           ....       9.011 sec  ( 32.6% of XC)
    XC-Functional eval.     ....       0.354 sec  (  1.3% of XC)
    XC-Potential eval.      ....       5.986 sec  ( 21.7% of XC)
Diagonalization             ....       0.000 sec  (  0.0%)
Density matrix formation    ....       7.349 sec  (  6.5%)
Total Energy calculation    ....       3.060 sec  (  2.7%)
Population analysis         ....       0.506 sec  (  0.5%)
Orbital Transformation      ....       0.816 sec  (  0.7%)
Orbital Orthonormalization  ....       0.000 sec  (  0.0%)
DIIS solution               ....       7.845 sec  (  7.0%)
SOSCF solution              ....      26.601 sec  ( 23.7%)
Finished LeanSCF after 205.4 sec

Maximum memory used throughout the entire LEANSCF-calculation: 71.0 MB


           ************************************************************
           *        Program running with 16 parallel MPI-processes    *
           *              working on a common directory               *
           ************************************************************

------------------------------------------------------------------------------
                         ORCA PROPERTY INTEGRAL CALCULATIONS
------------------------------------------------------------------------------

GBWName                                   ... CU2_BP_DKH.gbw
Number of atoms                           ...     66
Number of basis functions                 ...    780
Max core memory                           ...   1000 MB

Dipole integrals                          ... YES(DKH)
Quadrupole integrals                      ...  NO
Linear momentum integrals                 ...  NO
Angular momentum integrals                ...  NO
Higher moments length integrals           ...  NO
Higher moments velocity integrals         ...  NO
Kinetic energy integrals                  ...  NO
GIAO right hand sides                     ...  NO
GIAO dipole derivative integrals          ...  NO
SOC integrals                             ...  NO
EPR diamagnetic integrals (GIAO)          ...  NO
EPR gauge integrals                       ...  NO
Field gradient integrals                  ...  NO (   0 nuclei)
Spin-dipole/Fermi contact integrals       ...  NO (   0 nuclei)
Contact density integrals                 ...  NO (   0 nuclei)
Nucleus-orbit integrals                   ...  NO (   0 nuclei)
Geometric perturbations                   ...  NO (  66 nuclei)

DKH transformation order                  ... Second
Note: picture-change corrections are only included
      for the integrals annotated with "YES(DKH)"!

Choice of electric origin   ... Center of mass
Position of electric origin ... (  0.0000,  0.0000,  0.0000) 
Choice of magnetic origin   ... GIAO
Position of magnetic origin ... (  0.0000,  0.0000,  0.0000) 

Calculating integrals                     ... Electric Dipole (Length)     done (  3.9 sec)

Property integrals calculated in   4.0 sec

Maximum memory used throughout the entire PROPINT-calculation: 261.5 MB

-------------------------   --------------------
FINAL SINGLE POINT ENERGY     -6109.333477151093
-------------------------   --------------------



           ************************************************************
           *        Program running with 16 parallel MPI-processes    *
           *              working on a common directory               *
           ************************************************************

------------------------------------------------------------------------------
                              ORCA PROPERTY CALCULATIONS
------------------------------------------------------------------------------

GBWName                                 ... CU2_BP_DKH.gbw
Number of atoms                         ...     66
Number of basis functions               ...    780
Max core memory                         ...   1000 MB

Electric properties:
Dipole moment                           ... YES(DKH)
Quadrupole moment                       ...  NO
Static polarizability (Dipole/Dipole)   ...  NO
Static polarizability (Dipole/Quad.)    ...  NO
Static polarizability (Quad./Quad.)     ...  NO
Static polarizability (Velocity)        ...  NO
Static hyperpolarizability              ...  NO

Atomic electric properties:
Dipole moment                           ...  NO
Quadrupole moment                       ...  NO
Static polarizability                   ...  NO

Choice of electric origin               ... Center of mass
Position of electric origin             ...     0.000000     0.000000     0.000000

General magnetic properties:
Magnetizability                         ...  NO

EPR properties:
g-Tensor (aka g-matrix)                 ...  NO
Zero-Field splitting spin-orbit         ...  NO
Zero-field splitting spin-spin          ...  NO
Hyperfine couplings                     ...  NO (   0 nuclei)
Quadrupole couplings                    ...  NO (   0 nuclei)
Contact density                         ...  NO (   0 nuclei)

NMR properties:
Chemical shifts                         ...  NO (   0 nuclei)
Spin-rotation constants                 ...  NO (   0 nuclei)
Spin-spin couplings                     ...  NO (   0 nuclei,    0 pairs)

Choice of magnetic origin               ... GIAO
Position of magnetic origin             ...     0.000000     0.000000     0.000000

Properties with geometric perturbations:
SCF Hessian                             ...  NO
IR spectrum                             ...  NO
VCD spectrum                            ...  NO
X-ray spectroscopy properties:
SCF XES/XAS/RIXS spectra                ...  NO

SCF SOC stabilization energy            ...  NO
Diagonal Born-Oppenheimer correction    ...  NO
DKH transformation order                ... Second
Note: picture-change corrections are only included
      for the properties annotated with "YES(DKH)"!


-------------
DIPOLE MOMENT
-------------

Method             : SCF
Type of density    : Electron Density
Multiplicity       :   1
Irrep              :   0
Energy             : -6109.3334771510926657 Eh
Basis              : AO
                                X                 Y                 Z
Electronic contribution:      0.000103245      -0.000631823       0.000286853
Nuclear contribution   :      0.000000000      -0.000000000       0.000000000
                        -----------------------------------------
Total Dipole Moment    :      0.000103245      -0.000631823       0.000286853
                        -----------------------------------------
Magnitude (a.u.)       :      0.000701530
Magnitude (Debye)      :      0.001783147



--------------------
Rotational spectrum 
--------------------
 
Rotational constants in cm-1:             0.002948             0.001717             0.001580 
Rotational constants in MHz :            88.364196            51.471294            47.376530 

Dipole components along the rotational axes: 
x,y,z [a.u.] :     0.000544     0.000060    -0.000438 
x,y,z [Debye]:     0.001383     0.000153    -0.001115 

 

Dipole moment calculation done in   0.0 sec 

Maximum memory used throughout the entire PROP-calculation: 177.9 MB

--------------------------------
SUGGESTED CITATIONS FOR THIS RUN
--------------------------------

Below you find a list of papers that are relevant to this ORCA run
We neither can nor want to force you to cite these papers, but we appreciate if you do
You receive ORCA, which is the product of decades of hard work by many enthusiastic individuals, for free
The only thing we kindly ask in return is that you cite our papers,
We deeply appreciate it, if you show your appreciation for ORCA by not just citing the generic ORCA reference.

Please note that relegating all ORCA citations to the supporting information does *not* help us.
SI sections are not indexed - citations you put there will not count into any citation statistics
But we need these citations in order to attract the funding resources that allow us to do what we are doing

Therefore, if you are a happy ORCA user, please consider citing a few of the papers listed below in the main body of your paper

In addition to the list printed below, the program has created the file CU2_BP_DKH.bibtex that contains the list in bibtex format
You can import this file easily into all common literature databanks and citation aid programs


List of essential papers. We consider these as the minimum necessary citations

  1. Neese, F.
     Software update: the ORCA program system, version 6.0
     WIRES Comput. Molec. Sci. 2025 15(1), e70019
     doi.org/10.1002/wcms.7019

List of papers to cite with high priority. The work reported in these papers was absolutely
necessary for this run to complete.
Our perspective: the developers of density functionals and basis sets usually get cited in chemistry papers
Good! But without the algorithms to do something with them, the functionals or basis sets would not do anything.
Hence, in our opinion, the algorithm design and method developments papers are equally worthy of getting cited

  1. Neese, F.
     An improvement of the resolution of the identity approximation for the formation of the Coulomb matrix
     J. Comp. Chem. 2003 24(14), 1740-1747
     doi.org/10.1002/jcc.10318
  2. Neese, F.
     Definition of corresponding orbitals and the diradical character in broken symmetry DFT calculations on spin coupled systems
     J. Phys. Chem. Solids 2004 65(4), 781-785
     doi.org/10.1016/j.jpcs.2003.11.015
  3. Neese, F.
     The SHARK Integral Generation and Digestion System
     J. Comp. Chem. 2022 44(3), 381
     doi.org/10.1002/jcc.26942

List of suggested additional citations. These are papers that are important in the 'surrounding' of 
of this run, or papers that preceded the highly important papers. If you like your results we are grateful for a citation.

  1. Neese, F.
     The ORCA program system
     WIRES Comput. Molec. Sci. 2012 2(1), 73-78
     doi.org/10.1002/wcms.81
  2. Neese, F.
     Software update: the ORCA program system, version 4.0
     WIRES Comput. Molec. Sci. 2018 8(1), 1-6
     doi.org/10.1002/wcms.1327
  3. Neese, F.; Wennmohs, F.; Becker, U.; Riplinger, C.
     The ORCA quantum chemistry program package
     J. Chem. Phys. 2020 152(22), 224108
     doi.org/10.1063/5.0004608
  4. Neese, F.
     Software update: The ORCA program system—Version 5.0
     WIRES Comput. Molec. Sci. 2022 12(1), e1606
     doi.org/10.1002/wcms.1606

List of optional additional citations

  1. Neese, F.
     Approximate second-order SCF convergence for spin unrestricted wavefunctions
     Chem. Phys. Lett. 2000 325(1-3), 93-98
     doi.org/10.1016/s0009-2614(00)00662-x

Timings for individual modules:

Sum of individual times          ...      220.286 sec (=   3.671 min)
Startup calculation              ...        1.846 sec (=   0.031 min)   0.8 %
Relativistic integrals           ...        6.811 sec (=   0.114 min)   3.1 %
SCF iterations                   ...      206.687 sec (=   3.445 min)  93.8 %
Property integrals               ...        4.421 sec (=   0.074 min)   2.0 %
Property calculations            ...        0.521 sec (=   0.009 min)   0.2 %
                             ****ORCA TERMINATED NORMALLY****
TOTAL RUN TIME: 0 days 0 hours 3 minutes 40 seconds 566 msec
