
                                 *****************
                                 * O   R   C   A *
                                 *****************

                                            #,                                       
                                            ###                                      
                                            ####                                     
                                            #####                                    
                                            ######                                   
                                           ########,                                 
                                     ,,################,,,,,                         
                               ,,#################################,,                 
                          ,,##########################################,,             
                       ,#########################################, ''#####,          
                    ,#############################################,,   '####,        
                  ,##################################################,,,,####,       
                ,###########''''           ''''###############################       
              ,#####''   ,,,,##########,,,,          '''####'''          '####       
            ,##' ,,,,###########################,,,                        '##       
           ' ,,###''''                  '''############,,,                           
         ,,##''                                '''############,,,,        ,,,,,,###''
      ,#''                                            '''#######################'''  
     '                                                          ''''####''''         
             ,#######,   #######,   ,#######,      ##                                
            ,#'     '#,  ##    ##  ,#'     '#,    #''#        ,####,    ,#,          
            ##       ##  ##   ,#'  ##            #'  '#       #'       ,# #          
            ##       ##  #######   ##           ,######,      #####,      #          
            '#,     ,#'  ##    ##  '#,     ,#' ,#      #,     #,   #      #          
             '#######'   ##     ##  '#######'  #'      '#     '####' #    #          



                #########################################################
                #                        -***-                          #
                #          Department of theory and spectroscopy        #
                #                                                       #
                #                      Frank Neese                      #
                #                                                       #
                #     Directorship, Architecture, Infrastructure        #
                #                    SHARK, DRIVERS                     #
                #        Core code/Algorithms in most modules           #
                #                                                       #
                #        Max Planck Institute fuer Kohlenforschung      #
                #                Kaiser Wilhelm Platz 1                 #
                #                 D-45470 Muelheim/Ruhr                 #
                #                      Germany                          #
                #                                                       #
                #                  All rights reserved                  #
                #                        -***-                          #
                #########################################################


                         Program Version 6.1.0  -  RELEASE   -


 With contributions from (in alphabetic order):
[Max-Planck-Institut fuer Kohlenforschung]                               
  Daniel Aravena         : Magnetic Suceptibility                        
  Michael Atanasov       : Ab Initio Ligand Field Theory (pilot matlab implementation)
  Alexander A. Auer      : GIAO ZORA, VPT2 properties, NMR spectrum      
  Ute Becker             : All parallelization in ORCA, NUMFREQ, NUMCALC 
  Giovanni Bistoni       : ED, misc. LED, open-shell LED, HFLD           
  Dmytro Bykov           : pre 5.0 version of the SCF Hessian            
  Marcos Casanova-Páez   : Triplet and SCS-CIS(D). UHF-(DLPNO)-IP/EA/STEOM-CCSD. UHF-CVS-IP/STEOM-CCSD   
  Vijay G. Chilkuri      : MRCI spin determinant printing, contributions to CSF-ICE 
  Pauline Colinet        : FMM embedding                                 
  Dipayan Datta          : RHF DLPNO-CCSD density                        
  Achintya Kumar Dutta   : EOM-CC, STEOM-CC                              
  Nicolas Foglia         : Exact transition moments, OPA infrastructure, MCD improvements    
  Dmitry Ganyushin       : Spin-Orbit,Spin-Spin,Magnetic field MRCI      
  Miquel Garcia-Rates    : C-PCM and meta-GGA Hessian, CCSD/C-PCM, Gaussian charge scheme 
  Tiago L. C. Gouveia    : GS-ROHF, GS-ROCIS                             
  Yang Guo               : DLPNO-NEVPT2, F12-NEVPT2, CIM, IAO-localization        
  Andreas Hansen         : Spin unrestricted coupled pair/coupled cluster methods 
  Ingolf Harden          : AUTO-CI MPn and infrastructure                
  Benjamin Helmich-Paris : MC-RPA, TRAH-(SCF,CASSCF), AVAS, COSX integrals, SCF dyn. polar., MC-PDFT, srDFT 
  Lee Huntington         : MR-EOM, pCC                                   
  Robert Izsak           : Overlap fitted RIJCOSX, COSX-SCS-MP3, EOM     
  Riya Kayal             : Wick's Theorem for AUTO-CI, AUTO-CI UHF-CCSDT 
  Emily Kempfer          : AUTO-CI RHF CISDT and CCSDT, approximate NEVPT4
  Christian Kollmar      : KDIIS, OOCD, Brueckner-CCSD(T), CCSD density, CASPT2, CASPT2-K, improved NEVPT2 
  Axel Koslowski         : Symmetry handling                             
  Simone Kossmann        : meta-GGA functionals, TD-DFT gradient, OOMP2, (MP2 Hessian; deprecated post 5.0) 
  Lucas Lang             : DCDCAS, Hyperfine gauge corrections, ICE-SOC+SSC
  Marvin Lechner         : AUTO-CI (C++ implementation), FIC-MRCC        
  Spencer Leger          : CASSCF response                               
  Dagmar Lenk            : GEPOL surface, SMD, ORCA-2-JSON               
  Dimitrios Liakos       : Extrapolation schemes; Compound Job, Property file
  Dimitrios Manganas     : Further ROCIS development; embedding schemes. LFT, Crystal Embedding 
  Dimitrios Pantazis     : SARC Basis sets                               
  Anastasios Papadopoulos: AUTO-CI, single reference methods and gradients 
  Taras Petrenko         : pre 6.0 DFT Hessian and TD-DFT gradient,  ECA, NRVS 
  Petra Pikulova         : Analytic Raman intensities                    
  Peter Pinski           : DLPNO-MP2, DLPNO-MP2 Gradient                 
  Shashank Vittal Rao    : ES-AILFT, MagRelax                            
  Christoph Reimann      : Effective Core Potentials                     
  Marius Retegan         : Local ZFS, SOC                                
  Christoph Riplinger    : Optimizer, TS searches, QM/MM, DLPNO-CCSD(T), (RO)-DLPNO pert. Triples 
  Michael Roemelt        : Original ROCIS implementation, recursive CI coupling coefficients
  Masaaki Saitow         : Open-shell DLPNO-CCSD energy and density      
  Barbara Sandhoefer     : DKH picture change effects                    
  Yorick L. A. Schmerwitz: GMF and freeze-and-release deltaSCF, NEB S-IDPP initial path                    
  Kantharuban Sivalingam : CASSCF convergence/infrastructure, NEVPT2, NEVPT3, NEVPT4(SD), FIC-MRCI and CEPA variants
  Bernardo de Souza      : ESD, SOC TD-DFT                               
  Georgi L. Stoychev     : AutoAux, RI-MP2 NMR, DLPNO-MP2 response, X2C  
  Van Anh Tran           : RI-MP2 g-tensors                              
  Willem Van den Heuvel  : Paramagnetic NMR                              
  Zikuan Wang            : NOTCH, Electric field optimization            
  Frank Wennmohs         : Technical directorship and infrastructure     
  Hang Xu                : AUTO-CI-Response properties                   
                                                                         
[FACCTs GmbH]                                                            
  Markus Bursch, Nicolas Foglia, Miquel Garcia-Rates, Ingolf Harden, Hagen Neugebauer, Anastasios Papadopoulos, 
  Christoph Riplinger, Bernardo de Souza, Georgi L. Stoychev                                                    
                                                                 
  APM, various basis sets, CI-OPT, improved COSX, DLPNO-Multilevel,           
  DOCKER, DRACO, updates on ESD, Fragmentator, GOAT, IRC, LR-CPCM, L-BFGS, MBIS, meta-GGA TD-DFT gradient, ML-optimized integration grids, 
  MM, NACMEs, nearIR, NEB, NEB-TS, NL-DFT gradient (VV10), 2- and 3-layer-ONIOM, interface openCOSMO-RS, QMMM,   
  Crystal-QMMM, RESP, rigid body optimization, SF, symmetry and pop. for TD-DFT, various functionals, SOLVATOR                                   
                                                                         
[Other institutions]                                                     
  V. Asgeirsson          : NEB                                           
  Christoph Bannwarth    : sTDA-DFT, sTD-DFT, PBEh-3c, B97-3c, D3        
  Giovanni Bistoni       : ETS/NOCV, ADLD/ADEX, COVALED                  
  Martin Brehm           : Molecular dynamics                            
  Ronald Cardenas        : ETS/NOCV                                      
  Martina Colucci        : COVALED                                       
  Sebastian Ehlert       : rSCAN, r2SCAN, r2SCAN-3c, D4, dhf basis sets  
  Marvin Friede          : D4 for Fr, Ra, Ac-Lr                          
  Lars Goerigk           : TD-DFT with DH, B97 family of functionals     
  Stefan Grimme          : VdW corrections, initial TS optimization, DFT functionals, gCP, sTDA/sTD-DF 
  Waldemar Hujo          : DFT-NL                                        
  H. Jonsson             : NEB                                           
  Holger Kruse           : gCP                                           
  Marcel Mueller         : wB97X-3c, vDZP basis set                      
  Hagen Neugebauer       : wr2SCAN, Native XTB                           
  Gianluca Regni         : ADLD/ADEX                                     
  Tobias Risthaus        : pre 6.0 range-separated hybrid DFT and stability analysis
  Lukas Wittmann         : regularized MP2, r2SCAN double-hybrids, wr2SCAN        
                                                                         
We gratefully acknowledge several colleagues who have allowed us to      
interface, adapt or use parts of their codes:                            
  Ed Valeev, F. Pavosevic, A. Kumar             : LibInt (2-el integral package), F12 methods 
  Garnet Chan, S. Sharma, J. Yang, R. Olivares  : DMRG                   
  Ulf Ekstrom                                   : XCFun DFT Library      
  Mihaly Kallay                                 : mrcc  (arbitrary order and MRCC methods)
  Frank Weinhold                                : gennbo (NPA and NBO analysis)           
  Simon Mueller                                 : openCOSMO-RS                            
  Christopher J. Cramer and Donald G. Truhlar   : smd solvation model                     
  S Lehtola, MJT Oliveira, MAL Marques          : LibXC Library                           
  Liviu Ungur et al                             : ANISO software                          


 Your calculation uses the libint2 library for the computation of 2-el integrals
 For citations please refer to: http://libint.valeyev.net

 Your ORCA version has been built with support for libXC version: 7.0.0
 For citations please refer to: https://libxc.gitlab.io

 This ORCA versions uses:
   CBLAS   interface :  Fast vector & matrix operations
   LAPACKE interface :  Fast linear algebra routines
   Shared memory     :  Shared parallel matrices


  ***********************************
  * Starting time: Fri Sep 12 19:15:16 2025
  * Host name:     DESKTOP-SI45VP7
  * Process ID:    37304
  * Working dir.:  C:\orca_jobs\ex3
  ***********************************

NOTE: MaxCore=1000 MB was set to SCF,MP2,MDCI,CIPSI,MRCI,RASCI and CIS
      => If you want to overwrite this, your respective input block should be placed after the MaxCore statement


***************************************
The coordinates will be read from file: Cu2_for_5_BSDFT.xyz
***************************************


================================================================================

----- Orbital basis set information -----
Your calculation utilizes the basis: ZORA-def2-SVP 
   Exponents from def2-SVP [F. Weigend and R. Ahlrichs, Phys. Chem. Chem. Phys. 7, 3297 (2005)],
   recontracted for ZORA by D. A. Pantazis.

----- AuxJ basis set information -----
Your calculation utilizes the auxiliary basis: SARC/J 
   decontracted def2/J up to Kr:
   F. Weigend, Phys. Chem. Chem. Phys. 8, 1057 (2006)
   and SARC auxiliary basis sets beyond Kr:
   D. A. Pantazis and F. Neese, J. Chem. Theory Comput. 5, 2229 (2009).
   D. A. Pantazis, X. Y. Chen, C. R. Landis and F. Neese, J. Chem. Theory Comput. 4, 908 (2008).
   D. A. Pantazis and F. Neese, Theor. Chem. Acc. 131, 1292 (2012).
   D. A. Pantazis and F. Neese, J. Chem. Theory Comput. 7, 677 (2011).

================================================================================
                                        WARNINGS
                       Please study these warnings very carefully!
================================================================================



WARNING: Found flag for RIJCOSX approximation but no HF exchange needed!
  ===> : RIJCOSX  will be disabled and Split-RI-J is turned on

WARNING: Relativistic property calculations require picture change transformations!
  ===> : Setting %rel PictureChange = 1

WARNING: Picture change corrections for electric properties are not implemented for ZORA(MP),
         however, the errors are usually negligible.

WARNING: Broken symmetry calculations need fully converged wavefunctions
  ===> : Setting SCFConvForced true
         You can overwrite this default with %scf ConvForced false 


================================================================================
                                       INPUT FILE
================================================================================
NAME = CU2_BP_ZORA.INP
|  1> ! UKS BP86 RIJCOSX ZORA ZORA-def2-SVP SARC/J TightSCF
|  2> 
|  3> %pal
|  4>   nprocs 16
|  5> end
|  6> 
|  7> %maxcore 1000
|  8> 
|  9> %scf
| 10> FlipSpin 0       
| 11> FinalMs 0         
| 12> MaxIter 300
| 13> end
| 14> 
| 15> * xyzfile -2 3 Cu2_for_5_BSDFT.xyz
| 16> 
| 17> 
| 18>                          ****END OF INPUT****
================================================================================

                       ****************************
                       * Single Point Calculation *
                       ****************************

---------------------------------
CARTESIAN COORDINATES (ANGSTROEM)
---------------------------------
  Cu     0.141181   -1.336905    0.234754
  O      1.853907   -0.798371    1.051912
  O     -1.617100   -1.409633   -0.682009
  O      0.979405   -1.292850   -1.557639
  O     -0.742003   -0.918471    1.949698
  O      0.308678   -3.400068    0.455636
  O      2.751666   -3.977012    1.815800
  C      2.185509    0.398030    1.131865
  C      3.460615    0.653748    1.941991
  C      1.067687   -0.260173   -2.235795
  C      1.618931   -0.442209   -3.659536
  C      0.382102   -4.233983    1.604840
  H      0.517910   -5.173228    1.322596
  H     -0.471544   -4.183907    2.102861
  C      1.515268   -3.812630    2.506479
  H      1.400268   -2.864765    2.769457
  H      1.513584   -4.364609    3.328165
  C      3.910544   -3.547910    2.558497
  H      3.726181   -2.667977    2.997756
  C      4.270062   -4.575455    3.600776
  H      3.535049   -4.659721    4.244253
  H      5.083192   -4.295457    4.069898
  H      4.424234   -5.440441    3.167295
  C      5.035233   -3.395380    1.539336
  H      4.778069   -2.728796    0.866960
  H      5.197143   -4.256218    1.100076
  H      5.851067   -3.101363    1.994972
  F      3.309933    0.210081    3.176928
  F      3.764557    1.920071    2.010385
  F      4.487126   -0.009151    1.460347
  F      0.626331   -0.649220   -4.492782
  F      2.297897    0.595009   -4.078567
  F      2.422470   -1.493916   -3.738526
  Cu    -0.141181    1.336905   -0.234754
  O     -1.853907    0.798371   -1.051912
  O      1.617100    1.409633    0.682009
  O     -0.979405    1.292850    1.557639
  O      0.742003    0.918471   -1.949698
  O     -0.308678    3.400068   -0.455636
  O     -2.751666    3.977012   -1.815800
  C     -2.185509   -0.398030   -1.131865
  C     -3.460615   -0.653748   -1.941991
  C     -1.067687    0.260173    2.235795
  C     -1.618931    0.442209    3.659536
  C     -0.382102    4.233983   -1.604840
  H     -0.517910    5.173228   -1.322596
  H      0.471544    4.183907   -2.102861
  C     -1.515268    3.812630   -2.506479
  H     -1.400268    2.864765   -2.769457
  H     -1.513584    4.364609   -3.328165
  C     -3.910544    3.547910   -2.558497
  H     -3.726181    2.667977   -2.997756
  C     -4.270062    4.575455   -3.600776
  H     -3.535049    4.659721   -4.244253
  H     -5.083192    4.295457   -4.069898
  H     -4.424234    5.440441   -3.167295
  C     -5.035233    3.395380   -1.539336
  H     -4.778069    2.728796   -0.866960
  H     -5.197143    4.256218   -1.100076
  H     -5.851067    3.101363   -1.994972
  F     -3.309933   -0.210081   -3.176928
  F     -3.764557   -1.920071   -2.010385
  F     -4.487126    0.009151   -1.460347
  F     -0.626331    0.649220    4.492782
  F     -2.297897   -0.595009    4.078567
  F     -2.422470    1.493916    3.738526

----------------------------
CARTESIAN COORDINATES (A.U.)
----------------------------
  NO LB      ZA    FRAG     MASS         X           Y           Z
   0 Cu   29.0000    0    63.550    0.266793   -2.526384    0.443621
   1 O     8.0000    0    15.999    3.503377   -1.508703    1.987826
   2 O     8.0000    0    15.999   -3.055876   -2.663820   -1.288810
   3 O     8.0000    0    15.999    1.850807   -2.443132   -2.943511
   4 O     8.0000    0    15.999   -1.402182   -1.735659    3.684395
   5 O     8.0000    0    15.999    0.583317   -6.425197    0.861027
   6 O     8.0000    0    15.999    5.199895   -7.515464    3.431365
   7 C     6.0000    0    12.011    4.130013    0.752168    2.138915
   8 C     6.0000    0    12.011    6.539615    1.235405    3.669831
   9 C     6.0000    0    12.011    2.017636   -0.491656   -4.225040
  10 C     6.0000    0    12.011    3.059336   -0.835654   -6.915521
  11 C     6.0000    0    12.011    0.722068   -8.001068    3.032708
  12 H     1.0000    0     1.008    0.978708   -9.775984    2.499344
  13 H     1.0000    0     1.008   -0.891089   -7.906438    3.973831
  14 C     6.0000    0    12.011    2.863442   -7.204827    4.736559
  15 H     1.0000    0     1.008    2.646123   -5.413621    5.233515
  16 H     1.0000    0     1.008    2.860259   -8.247916    6.289320
  17 C     6.0000    0    12.011    7.389857   -6.704578    4.834859
  18 H     1.0000    0     1.008    7.041462   -5.041746    5.664938
  19 C     6.0000    0    12.011    8.069248   -8.646357    6.804481
  20 H     1.0000    0     1.008    6.680274   -8.805597    8.020476
  21 H     1.0000    0     1.008    9.605841   -8.117237    7.690993
  22 H     1.0000    0     1.008    8.360591  -10.280944    5.985320
  23 C     6.0000    0    12.011    9.515211   -6.416338    2.908923
  24 H     1.0000    0     1.008    9.029242   -5.156677    1.638317
  25 H     1.0000    0     1.008    9.821177   -8.043086    2.078842
  26 H     1.0000    0     1.008   11.056914   -5.860727    3.769951
  27 F     9.0000    0    18.998    6.254867    0.396996    6.003524
  28 F     9.0000    0    18.998    7.113982    3.628408    3.799077
  29 F     9.0000    0    18.998    8.479439   -0.017293    2.759656
  30 F     9.0000    0    18.998    1.183594   -1.226848   -8.490128
  31 F     9.0000    0    18.998    4.342396    1.124404   -7.707375
  32 F     9.0000    0    18.998    4.577805   -2.823092   -7.064790
  33 Cu   29.0000    0    63.550   -0.266793    2.526384   -0.443621
  34 O     8.0000    0    15.999   -3.503377    1.508703   -1.987826
  35 O     8.0000    0    15.999    3.055876    2.663820    1.288810
  36 O     8.0000    0    15.999   -1.850807    2.443132    2.943511
  37 O     8.0000    0    15.999    1.402182    1.735659   -3.684395
  38 O     8.0000    0    15.999   -0.583317    6.425197   -0.861027
  39 O     8.0000    0    15.999   -5.199895    7.515464   -3.431365
  40 C     6.0000    0    12.011   -4.130013   -0.752168   -2.138915
  41 C     6.0000    0    12.011   -6.539615   -1.235405   -3.669831
  42 C     6.0000    0    12.011   -2.017636    0.491656    4.225040
  43 C     6.0000    0    12.011   -3.059336    0.835654    6.915521
  44 C     6.0000    0    12.011   -0.722068    8.001068   -3.032708
  45 H     1.0000    0     1.008   -0.978708    9.775984   -2.499344
  46 H     1.0000    0     1.008    0.891089    7.906438   -3.973831
  47 C     6.0000    0    12.011   -2.863442    7.204827   -4.736559
  48 H     1.0000    0     1.008   -2.646123    5.413621   -5.233515
  49 H     1.0000    0     1.008   -2.860259    8.247916   -6.289320
  50 C     6.0000    0    12.011   -7.389857    6.704578   -4.834859
  51 H     1.0000    0     1.008   -7.041462    5.041746   -5.664938
  52 C     6.0000    0    12.011   -8.069248    8.646357   -6.804481
  53 H     1.0000    0     1.008   -6.680274    8.805597   -8.020476
  54 H     1.0000    0     1.008   -9.605841    8.117237   -7.690993
  55 H     1.0000    0     1.008   -8.360591   10.280944   -5.985320
  56 C     6.0000    0    12.011   -9.515211    6.416338   -2.908923
  57 H     1.0000    0     1.008   -9.029242    5.156677   -1.638317
  58 H     1.0000    0     1.008   -9.821177    8.043086   -2.078842
  59 H     1.0000    0     1.008  -11.056914    5.860727   -3.769951
  60 F     9.0000    0    18.998   -6.254867   -0.396996   -6.003524
  61 F     9.0000    0    18.998   -7.113982   -3.628408   -3.799077
  62 F     9.0000    0    18.998   -8.479439    0.017293   -2.759656
  63 F     9.0000    0    18.998   -1.183594    1.226848    8.490128
  64 F     9.0000    0    18.998   -4.342396   -1.124404    7.707375
  65 F     9.0000    0    18.998   -4.577805    2.823092    7.064790

--------------------------------
INTERNAL COORDINATES (ANGSTROEM)
--------------------------------
 Cu     0   0   0     0.000000000000     0.00000000     0.00000000
 O      1   0   0     1.972611572813     0.00000000     0.00000000
 O      1   2   0     1.984262037916   166.11237228     0.00000000
 O      1   2   3     1.979200086815    90.07770835    80.16607040
 O      1   2   4     1.973862688575    88.32122039   193.59541285
 O      1   2   5     2.081702588628    99.01879534   261.30035288
 O      6   1   2     2.855013284413   108.64365451     1.98702110
 C      2   1   5     1.244077056060   121.37211734   278.43485852
 C      8   2   1     1.532185087591   114.60147822   172.95644703
 C      4   1   2     1.238592369664   122.99656006   274.33741762
 C     10   4   1     1.537545279955   115.71142652   185.99924906
 C      6   1   2     1.421785899711   132.16144548    63.66538320
 H     12   6   1     0.990094267444   109.45533912   183.77243415
 H     12   6   1     0.989567590179   109.42397712    65.54653834
 C      7   6   1     1.425741539470    57.68632984    92.73735306
 H     15   7   6     0.990368863964   109.85735887   268.89618308
 H     15   7   6     0.989874504618   109.83475393   149.94049878
 C      7   6   1     1.441778616535   150.81541993    10.19866134
 H     18   7   6     1.000609948651   109.86249063    22.77444026
 C     18   7   6     1.507132188360   110.18587741   143.96534670
 H     20  18   7     0.980513905283   109.48895605   297.25334384
 H     20  18   7     0.979619685280   109.53056767   177.26738103
 H     20  18   7     0.979732393637   109.48093787    57.20437033
 C     18   7   6     1.525411384362   106.15425969   263.93528538
 H     24  18   7     0.981099912001   109.42427002    59.91890263
 H     24  18   7     0.979901147027   109.48019166   299.96922646
 H     24  18   7     0.979609757169   109.46865333   179.87388448
 F      9   8   2     1.320838697942   110.08123284   300.72390240
 F      9   8   2     1.304082980078   112.56672208   180.58324828
 F      9   8   2     1.313446177069   111.85662648    57.32386174
 F     11  10   4     1.312405124433   109.59829306    91.12623327
 F     11  10   4     1.308588165788   112.87322773   211.93143201
 F     11  10   4     1.325896662063   111.49084465   332.62348286
 Cu     1   2   8     2.729363657926    83.89418204     2.57984780
 O     34   1   2     1.972611572813    83.89418204   180.00000000
 O      8   2   1     1.244507871259   129.54860593   355.01700499
 O     34   1   2     1.979200086815    82.31212243   270.90625617
 O     10   4   1     1.255835673964   129.73854588     3.95456838
 O     34   1   2     2.081702588628   175.94593890   316.10852543
 O     39  34  35     2.855013284413   108.64365451   358.01297890
 C     35  34   1     1.244077056060   121.37211734   357.42015220
 C     41  35  34     1.532185087591   114.60147822   187.04355297
 C     37  34   1     1.238592369664   122.99656006     1.83455019
 C     43  37  34     1.537545279955   115.71142652   174.00075094
 C     39  34  35     1.421785899711   132.16144548   296.33461680
 H     45  39  34     0.990094267444   109.45533912   176.22756585
 H     45  39  34     0.989567590179   109.42397712   294.45346166
 C     40  39  34     1.425741539470    57.68632984   267.26264694
 H     48  40  39     0.990368863964   109.85735887    91.10381692
 H     48  40  39     0.989874504618   109.83475393   210.05950122
 C     40  39  34     1.441778616535   150.81541993   349.80133866
 H     51  40  39     1.000609948651   109.86249063   337.22555974
 C     51  40  39     1.507132188360   110.18587741   216.03465330
 H     53  51  40     0.980513905283   109.48895605    62.74665616
 H     53  51  40     0.979619685280   109.53056767   182.73261897
 H     53  51  40     0.979732393637   109.48093787   302.79562967
 C     51  40  39     1.525411384362   106.15425969    96.06471462
 H     57  51  40     0.981099912001   109.42427002   300.08109737
 H     57  51  40     0.979901147027   109.48019166    60.03077354
 H     57  51  40     0.979609757169   109.46865333   180.12611552
 F     42  41  35     1.320838697942   110.08123284    59.27609760
 F     42  41  35     1.304082980078   112.56672208   179.41675172
 F     42  41  35     1.313446177069   111.85662648   302.67613826
 F     44  43  37     1.312405124433   109.59829306   268.87376673
 F     44  43  37     1.308588165788   112.87322773   148.06856799
 F     44  43  37     1.325896662063   111.49084465    27.37651714

---------------------------
INTERNAL COORDINATES (A.U.)
---------------------------
 Cu     0   0   0     0.000000000000     0.00000000     0.00000000
 O      1   0   0     3.727695641220     0.00000000     0.00000000
 O      1   2   0     3.749711829597   166.11237228     0.00000000
 O      1   2   3     3.740146128314    90.07770835    80.16607040
 O      1   2   4     3.730059907372    88.32122039   193.59541285
 O      1   2   5     3.933847784783    99.01879534   261.30035288
 O      6   1   2     5.395193216248   108.64365451     1.98702110
 C      2   1   5     2.350964925448   121.37211734   278.43485852
 C      8   2   1     2.895410202025   114.60147822   172.95644703
 C      4   1   2     2.340600370229   122.99656006   274.33741762
 C     10   4   1     2.905539497619   115.71142652   185.99924906
 C      6   1   2     2.686785971525   132.16144548    63.66538320
 H     12   6   1     1.871007012234   109.45533912   183.77243415
 H     12   6   1     1.870011736443   109.42397712    65.54653834
 C      7   6   1     2.694261047353    57.68632984    92.73735306
 H     15   7   6     1.871525924454   109.85735887   268.89618308
 H     15   7   6     1.870591720679   109.83475393   149.94049878
 C      7   6   1     2.724566730995   150.81541993    10.19866134
 H     18   7   6     1.890878769827   109.86249063    22.77444026
 C     18   7   6     2.848067083617   110.18587741   143.96534670
 H     20  18   7     1.852902751487   109.48895605   297.25334384
 H     20  18   7     1.851212920577   109.53056767   177.26738103
 H     20  18   7     1.851425908504   109.48093787    57.20437033
 C     18   7   6     2.882609758010   106.15425969   263.93528538
 H     24  18   7     1.854010143696   109.42427002    59.91890263
 H     24  18   7     1.851744806196   109.48019166   299.96922646
 H     24  18   7     1.851194159167   109.46865333   179.87388448
 F      9   8   2     2.496023406196   110.08123284   300.72390240
 F      9   8   2     2.464359688255   112.56672208   180.58324828
 F      9   8   2     2.482053566307   111.85662648    57.32386174
 F     11  10   4     2.480086261932   109.59829306    91.12623327
 F     11  10   4     2.472873255430   112.87322773   211.93143201
 F     11  10   4     2.505581573180   111.49084465   332.62348286
 Cu     1   2   8     5.157749833358    83.89418204     2.57984780
 O     34   1   2     3.727695641220    83.89418204   180.00000000
 O      8   2   1     2.351779048189   129.54860593   355.01700499
 O     34   1   2     3.740146128314    82.31212243   270.90625617
 O     10   4   1     2.373185493001   129.73854588     3.95456838
 O     34   1   2     3.933847784783   175.94593890   316.10852543
 O     39  34  35     5.395193216248   108.64365451   358.01297890
 C     35  34   1     2.350964925448   121.37211734   357.42015220
 C     41  35  34     2.895410202025   114.60147822   187.04355297
 C     37  34   1     2.340600370229   122.99656006     1.83455019
 C     43  37  34     2.905539497619   115.71142652   174.00075094
 C     39  34  35     2.686785971525   132.16144548   296.33461680
 H     45  39  34     1.871007012234   109.45533912   176.22756585
 H     45  39  34     1.870011736443   109.42397712   294.45346166
 C     40  39  34     2.694261047353    57.68632984   267.26264694
 H     48  40  39     1.871525924454   109.85735887    91.10381692
 H     48  40  39     1.870591720679   109.83475393   210.05950122
 C     40  39  34     2.724566730995   150.81541993   349.80133866
 H     51  40  39     1.890878769827   109.86249063   337.22555974
 C     51  40  39     2.848067083617   110.18587741   216.03465330
 H     53  51  40     1.852902751487   109.48895605    62.74665616
 H     53  51  40     1.851212920577   109.53056767   182.73261897
 H     53  51  40     1.851425908504   109.48093787   302.79562967
 C     51  40  39     2.882609758010   106.15425969    96.06471462
 H     57  51  40     1.854010143696   109.42427002   300.08109737
 H     57  51  40     1.851744806196   109.48019166    60.03077354
 H     57  51  40     1.851194159167   109.46865333   180.12611552
 F     42  41  35     2.496023406196   110.08123284    59.27609760
 F     42  41  35     2.464359688255   112.56672208   179.41675172
 F     42  41  35     2.482053566307   111.85662648   302.67613826
 F     44  43  37     2.480086261932   109.59829306   268.87376673
 F     44  43  37     2.472873255430   112.87322773   148.06856799
 F     44  43  37     2.505581573180   111.49084465    27.37651714

---------------------
BASIS SET INFORMATION
---------------------
There are 5 groups of distinct atoms

 Group   1 Type Cu  : 14s9p5d1f contracted to 9s5p2d1f pattern {611111111/51111/41/1}
 Group   2 Type O   : 7s4p1d contracted to 3s2p1d pattern {511/31/1}
 Group   3 Type C   : 7s4p1d contracted to 3s2p1d pattern {511/31/1}
 Group   4 Type H   : 4s1p contracted to 2s1p pattern {31/1}
 Group   5 Type F   : 7s4p1d contracted to 3s2p1d pattern {511/31/1}

Atom   0Cu   basis set group =>   1
Atom   1O    basis set group =>   2
Atom   2O    basis set group =>   2
Atom   3O    basis set group =>   2
Atom   4O    basis set group =>   2
Atom   5O    basis set group =>   2
Atom   6O    basis set group =>   2
Atom   7C    basis set group =>   3
Atom   8C    basis set group =>   3
Atom   9C    basis set group =>   3
Atom  10C    basis set group =>   3
Atom  11C    basis set group =>   3
Atom  12H    basis set group =>   4
Atom  13H    basis set group =>   4
Atom  14C    basis set group =>   3
Atom  15H    basis set group =>   4
Atom  16H    basis set group =>   4
Atom  17C    basis set group =>   3
Atom  18H    basis set group =>   4
Atom  19C    basis set group =>   3
Atom  20H    basis set group =>   4
Atom  21H    basis set group =>   4
Atom  22H    basis set group =>   4
Atom  23C    basis set group =>   3
Atom  24H    basis set group =>   4
Atom  25H    basis set group =>   4
Atom  26H    basis set group =>   4
Atom  27F    basis set group =>   5
Atom  28F    basis set group =>   5
Atom  29F    basis set group =>   5
Atom  30F    basis set group =>   5
Atom  31F    basis set group =>   5
Atom  32F    basis set group =>   5
Atom  33Cu   basis set group =>   1
Atom  34O    basis set group =>   2
Atom  35O    basis set group =>   2
Atom  36O    basis set group =>   2
Atom  37O    basis set group =>   2
Atom  38O    basis set group =>   2
Atom  39O    basis set group =>   2
Atom  40C    basis set group =>   3
Atom  41C    basis set group =>   3
Atom  42C    basis set group =>   3
Atom  43C    basis set group =>   3
Atom  44C    basis set group =>   3
Atom  45H    basis set group =>   4
Atom  46H    basis set group =>   4
Atom  47C    basis set group =>   3
Atom  48H    basis set group =>   4
Atom  49H    basis set group =>   4
Atom  50C    basis set group =>   3
Atom  51H    basis set group =>   4
Atom  52C    basis set group =>   3
Atom  53H    basis set group =>   4
Atom  54H    basis set group =>   4
Atom  55H    basis set group =>   4
Atom  56C    basis set group =>   3
Atom  57H    basis set group =>   4
Atom  58H    basis set group =>   4
Atom  59H    basis set group =>   4
Atom  60F    basis set group =>   5
Atom  61F    basis set group =>   5
Atom  62F    basis set group =>   5
Atom  63F    basis set group =>   5
Atom  64F    basis set group =>   5
Atom  65F    basis set group =>   5
---------------------------------
AUXILIARY/J BASIS SET INFORMATION
---------------------------------
There are 5 groups of distinct atoms

 Group   1 Type Cu  : 19s5p5d3f3g contracted to 19s5p5d3f3g pattern {1111111111111111111/11111/11111/111/111}
 Group   2 Type O   : 12s5p4d2f1g contracted to 12s5p4d2f1g pattern {111111111111/11111/1111/11/1}
 Group   3 Type C   : 12s5p4d2f1g contracted to 12s5p4d2f1g pattern {111111111111/11111/1111/11/1}
 Group   4 Type H   : 5s2p1d contracted to 5s2p1d pattern {11111/11/1}
 Group   5 Type F   : 12s5p4d2f1g contracted to 12s5p4d2f1g pattern {111111111111/11111/1111/11/1}

Atom   0Cu   basis set group =>   1
Atom   1O    basis set group =>   2
Atom   2O    basis set group =>   2
Atom   3O    basis set group =>   2
Atom   4O    basis set group =>   2
Atom   5O    basis set group =>   2
Atom   6O    basis set group =>   2
Atom   7C    basis set group =>   3
Atom   8C    basis set group =>   3
Atom   9C    basis set group =>   3
Atom  10C    basis set group =>   3
Atom  11C    basis set group =>   3
Atom  12H    basis set group =>   4
Atom  13H    basis set group =>   4
Atom  14C    basis set group =>   3
Atom  15H    basis set group =>   4
Atom  16H    basis set group =>   4
Atom  17C    basis set group =>   3
Atom  18H    basis set group =>   4
Atom  19C    basis set group =>   3
Atom  20H    basis set group =>   4
Atom  21H    basis set group =>   4
Atom  22H    basis set group =>   4
Atom  23C    basis set group =>   3
Atom  24H    basis set group =>   4
Atom  25H    basis set group =>   4
Atom  26H    basis set group =>   4
Atom  27F    basis set group =>   5
Atom  28F    basis set group =>   5
Atom  29F    basis set group =>   5
Atom  30F    basis set group =>   5
Atom  31F    basis set group =>   5
Atom  32F    basis set group =>   5
Atom  33Cu   basis set group =>   1
Atom  34O    basis set group =>   2
Atom  35O    basis set group =>   2
Atom  36O    basis set group =>   2
Atom  37O    basis set group =>   2
Atom  38O    basis set group =>   2
Atom  39O    basis set group =>   2
Atom  40C    basis set group =>   3
Atom  41C    basis set group =>   3
Atom  42C    basis set group =>   3
Atom  43C    basis set group =>   3
Atom  44C    basis set group =>   3
Atom  45H    basis set group =>   4
Atom  46H    basis set group =>   4
Atom  47C    basis set group =>   3
Atom  48H    basis set group =>   4
Atom  49H    basis set group =>   4
Atom  50C    basis set group =>   3
Atom  51H    basis set group =>   4
Atom  52C    basis set group =>   3
Atom  53H    basis set group =>   4
Atom  54H    basis set group =>   4
Atom  55H    basis set group =>   4
Atom  56C    basis set group =>   3
Atom  57H    basis set group =>   4
Atom  58H    basis set group =>   4
Atom  59H    basis set group =>   4
Atom  60F    basis set group =>   5
Atom  61F    basis set group =>   5
Atom  62F    basis set group =>   5
Atom  63F    basis set group =>   5
Atom  64F    basis set group =>   5
Atom  65F    basis set group =>   5


           ************************************************************
           *        Program running with 16 parallel MPI-processes    *
           *              working on a common directory               *
           ************************************************************
------------------------------------------------------------------------------
                             ORCA STARTUP CALCULATIONS
                           -- RI-GTO INTEGRALS CHOSEN --
------------------------------------------------------------------------------
------------------------------------------------------------------------------
                   ___                                                        
                  /   \      - P O W E R E D   B Y -                         
                 /     \                                                     
                 |  |  |   _    _      __       _____    __    __             
                 |  |  |  | |  | |    /  \     |  _  \  |  |  /  |          
                  \  \/   | |  | |   /    \    | | | |  |  | /  /          
                 / \  \   | |__| |  /  /\  \   | |_| |  |  |/  /          
                |  |  |   |  __  | /  /__\  \  |    /   |      \           
                |  |  |   | |  | | |   __   |  |    \   |  |\   \          
                \     /   | |  | | |  |  |  |  | |\  \  |  | \   \       
                 \___/    |_|  |_| |__|  |__|  |_| \__\ |__|  \__/        
                                                                              
                      - O R C A' S   B I G   F R I E N D -                    
                                      &                                       
                       - I N T E G R A L  F E E D E R -                       
                                                                              
 v1 FN, 2020, v2 2021, v3 2022-2024                                           
------------------------------------------------------------------------------


----------------------
SHARK INTEGRAL PACKAGE
----------------------

Number of atoms                             ...     66
Number of basis functions                   ...    780
Number of shells                            ...    352
Maximum angular momentum                    ...      3
Integral batch strategy                     ... SHARK/LIBINT Hybrid
RI-J (if used) integral strategy            ... SPLIT-RIJ (Revised 2003 algorithm where possible)
Printlevel                                  ...      1
Contraction scheme used                     ... SEGMENTED contraction
Prescreening option                         ... SCHWARTZ
   Thresh                                   ... 2.500e-11
   Tcut                                     ... 2.500e-12
   Tpresel                                  ... 2.500e-12 
Coulomb Range Separation                    ... NOT USED
Exchange Range Separation                   ... NOT USED
Multipole approximations                    ... NOT USED
Finite Nucleus Model                        ... NOT USED
CABS basis                                  ... NOT available
Auxiliary Coulomb fitting basis             ... AVAILABLE
   # of basis functions in Aux-J            ...   3506
   # of shells in Aux-J                     ...   1254
   Maximum angular momentum in Aux-J        ...      4
Auxiliary J/K fitting basis                 ... NOT available
Auxiliary Correlation fitting basis         ... NOT available
Auxiliary 'external' fitting basis          ... NOT available

Checking pre-screening integrals            ... done (  0.0 sec) Dimension = 352
   => SHARK Basis and OBASIS are compatible. Storing Pre-screening
Shell pair information
Shell pair cut-off parameter TPreSel        ...   2.5e-12
Total number of shell pairs                 ...     62128
Shell pairs after pre-screening             ...     31005
Total number of primitive shell pairs       ...    226802
Primitive shell pairs kept                  ...     65463
          la=0 lb=0:   8934 shell pairs
          la=1 lb=0:  11392 shell pairs
          la=1 lb=1:   3734 shell pairs
          la=2 lb=0:   3762 shell pairs
          la=2 lb=1:   2430 shell pairs
          la=2 lb=2:    374 shell pairs
          la=3 lb=0:    200 shell pairs
          la=3 lb=1:    138 shell pairs
          la=3 lb=2:     38 shell pairs
          la=3 lb=3:      3 shell pairs

Checking whether 4 symmetric matrices of dimension 780 fit in memory
:Max Core in MB      =   1000.00
 MB in use           =     33.34
 MB left             =    966.66
 MB needed           =      9.30
 Data fit in memory  = YES
Calculating RI/J V-Matrix + Cholesky decomp.... done (  0.5 sec)
Calculating Nuclear repulsion               ... done (  0.0 sec) ENN=   8932.017683851578 Eh

Diagonalization of the overlap matrix:
Smallest eigenvalue                        ... 7.496e-04
Time for diagonalization                   ...    0.049 sec
Threshold for overlap eigenvalues          ... 1.000e-07
Number of eigenvalues below threshold      ... 0
Time for construction of square roots      ...    0.038 sec
Total time needed                          ...    0.094 sec

-------------------
DFT GRID GENERATION
-------------------

General Integration Accuracy     IntAcc      ... 4.388
Radial Grid Type                 RadialGrid  ... OptM3 with GC (2021)
Angular Grid (max. ang.)         AngularGrid ... 4 (Lebedev-302)
Angular grid pruning method      GridPruning ... 4 (adaptive)
Weight generation scheme         WeightScheme... mBecke (2022)
Basis function cutoff            BFCut       ... 1.0000e-11
Integration weight cutoff        WCut        ... 1.0000e-14
Partially contracted basis set               ... off
Rotationally invariant grid construction     ... off
Angular grids for H and He will be reduced by one unit
Core-polarized basis detected: some atoms will have their core
                               angular grid increased.

Total number of grid points                  ...   343604
Total number of batches                      ...     5400
Average number of points per batch           ...       63
Average number of grid points per atom       ...     5206
Grids setup in   1.0 sec
Initializing property integral containers    ... done (  0.0 sec)

SHARK setup successfully completed in   1.8 seconds

Maximum memory used throughout the entire STARTUP-calculation: 95.3 MB


           ************************************************************
           *        Program running with 16 parallel MPI-processes    *
           *              working on a common directory               *
           ************************************************************
------------------------------------------------------------------------------
                          ORCA RELATIVISTIC HAMILTONIAN
------------------------------------------------------------------------------

Relativistic Method            ... ZORA(MP)
Treatment of potential         ... Van Wuellen
Nucleus model                  ... Point Nucleus
Speed of light used            ... 137.03598950000000


            *************************************************
            *         ZERO ORDER REGULAR APPROXIMATION      *
            *                     ZORA(MP)                  *
            *            Programmed by FN according to      *
            *                   C. van Wuellen              *
            *       J. Chem. Phys. (1998) vol 109, 392-399  *
            *************************************************

Terms included in model potential: +V(e,N)+V(C)+V(Xa)+V(VWN-V)
Basis function cutoff value   ... 1.000000e-11
Loading the fitted atomic densities (ZORA)   ... done
Calculating the cutoffs                      ... done
Number of fit functions                      ... 626
Setting up the integration grid ... done

Maximum memory used throughout the entire REL-calculation: 66.7 MB


           ************************************************************
           *        Program running with 16 parallel MPI-processes    *
           *              working on a common directory               *
           ************************************************************
-------------------------------------------------------------------------------
                                 ORCA GUESS
                   Start orbitals & Density for SCF / CASSCF
-------------------------------------------------------------------------------

------------
SCF SETTINGS
------------
Hamiltonian:
 Density Functional     Method          .... DFT(GTOs)
 Exchange Functional    Exchange        .... B88
   X-Alpha parameter    XAlpha          ....  0.666667
   Becke's b parameter  XBeta           ....  0.004200
 Correlation Functional Correlation     .... P86
 LDA part of GGA corr.  LDAOpt          .... PW91-LDA
 Gradients option       PostSCFGGA      .... off
   NL short-range parameter             ....  4.400000
 RI-approximation to the Coulomb term is turned on
   Number of AuxJ basis functions       .... 3506


General Settings:
 Integral files         IntName         .... CU2_BP_ZORA
 Hartree-Fock type      HFTyp           .... UHF
 Total Charge           Charge          ....   -2
 Multiplicity           Mult            ....    3
 Number of Electrons    NEL             ....  394
 Basis Dimension        Dim             ....  780
 Nuclear Repulsion      ENuc            ....   8932.0176838516 Eh

Convergence Acceleration:
 AO-DIIS                CNVDIIS         .... on
   Start iteration      DIISMaxIt       ....    12
   Startup error        DIISStart       ....  0.200000
   # of expansion vecs  DIISMaxEq       ....     5
   Bias factor          DIISBfac        ....   1.050
   Max. coefficient     DIISMaxC        ....  10.000
 MO-DIIS                CNVKDIIS        .... off
 Trust-Rad. Augm. Hess. CNVTRAH         .... auto
   Auto Start mean grad. ratio tolernc. ....  1.125000
   Auto Start start iteration           ....    50
   Auto Start num. interpolation iter.  ....    10
   Max. Number of Micro iterations      ....    24
   Max. Number of Macro iterations      .... Maxiter - #DIIS iter
   Number of Davidson start vectors     ....     2
   Converg. threshold    (grad. norm)   ....   1.000e-05
   Grad. Scal. Fac. for Micro threshold ....   0.100
   Minimum threshold for Micro iter.    ....   1.000e-02
   NR start threshold (gradient norm)   ....   1.000e-04
   Initial trust radius                 ....   0.400
   Minimum AH scaling param. (alpha)    ....   1.000
   Maximum AH scaling param. (alpha)    .... 1000.000
   Quad. conv. algorithm                .... NR
   White noise on init. David. guess    .... on
   Maximum white noise                  ....   0.010
   Pseudo random numbers                .... off
   Inactive MOs                         .... canonical
   Orbital update algorithm             .... Taylor
   Preconditioner                       .... Diag
   Full preconditioner red. dimension   ....   250
 SOSCF                 CNVSOSCF           .... on
   Start iteration     SOSCFMaxIt         ....   150
   Startup grad/error  SOSCFStart         ....  0.003300
   Hessian update      SOSCFHessUp        .... L-BFGS
   Autom. constraints  SOSCFAutoConstrain .... off
 Level Shifting         CNVShift        .... on
   Level shift para.    LevelShift      ....    0.2500
   Turn off err/grad.   ShiftErr        ....    0.0010
 Zerner damping         CNVZerner       .... off
 Static damping         CNVDamp         .... on
   Fraction old density DampFac         ....    0.7000
   Max. Damping (<1)    DampMax         ....    0.9800
   Min. Damping (>=0)   DampMin         ....    0.0000
   Turn off err/grad.   DampErr         ....    0.1000

SCF Procedure:
 Maximum # iterations   MaxIter         ....   300
 SCF integral mode      SCFMode         .... Direct
   Integral package                     .... SHARK and LIBINT hybrid scheme
 Reset frequency        DirectResetFreq ....    20
 Integral Threshold     Thresh          ....  2.500e-11 Eh
 Primitive CutOff       TCut            ....  2.500e-12 Eh

Convergence Tolerance:
 Convergence Check Mode ConvCheckMode   .... Total+1el-Energy
 Convergence forced     ConvForced      .... 1
 Energy Change          TolE            ....  1.000e-08 Eh
 1-El. energy change                    ....  1.000e-05 Eh
 Orbital Gradient       TolG            ....  1.000e-05
 Orbital Rotation angle TolX            ....  1.000e-05
 DIIS Error             TolErr          ....  5.000e-07


The Flip-Spin feature is operative for generating broken symmetry solutions
List of atoms to flip:
 Cu0
We will now do a high-spin calculation with                 Ms=  1.0
and then try to converge to the broken symmetry state with Ms=  0.0

------------------------------
INITIAL GUESS: MODEL POTENTIAL
------------------------------
Loading ZORA relativistic densities                ... done
Calculating cut-offs                               ... done
Initializing the effective Hamiltonian             ... done
Setting up the integral package (SHARK)            ... done
Starting the Coulomb interaction                   ... done (   0.2 sec)
Making the grid                                    ... done (   0.3 sec)
Mapping shells                                     ... done
Starting the XC term evaluation                    ... done (   0.1 sec)
  promolecular density results
     # of electrons  =    391.989494447
     EX              =   -453.158114019
     EC              =    -15.917854955
     EX+EC           =   -469.075968975
Transforming the Hamiltonian                       ... done (   0.0 sec)
Diagonalizing the Hamiltonian                      ... done (   0.0 sec)
Back transforming the eigenvectors                 ... done (   0.1 sec)
Now organizing SCF variables                       ... done
                      ------------------
                      INITIAL GUESS DONE (   0.9 sec)
                      ------------------
             **** ENERGY FILE WAS UPDATED (CU2_BP_ZORA.en.tmp) ****
Finished Guess after   1.1 sec
Maximum memory used throughout the entire GUESS-calculation: 47.3 MB


           ************************************************************
           *        Program running with 16 parallel MPI-processes    *
           *              working on a common directory               *
           ************************************************************

-------------------------------------------------------------------------------------------
                                      ORCA LEAN-SCF
                              memory conserving SCF solver
-------------------------------------------------------------------------------------------

                     ******************************************
                               F L I P    S P I N
                           -----------------------------
                            High-Spin SCF calculation
                                S(HS) =   1.0
                      ******************************************
 ----------------------------------------D-I-I-S--------------------------------------------
Iteration    Energy (Eh)           Delta-E    RMSDP     MaxDP     DIISErr   Damp  Time(sec)
-------------------------------------------------------------------------------------------
               ***  Starting incremental Fock matrix formation  ***
    1    -6123.3620905575535289     0.00e+00  6.11e-03  1.35e-01  1.59e-01  0.700   1.6
Warning: op=0 Small HOMO/LUMO gap (   0.021) - skipping pre-diagonalization
         Will do a full diagonalization
    2    -6124.1051710468454985    -7.43e-01  3.11e-03  8.47e-02  5.14e-02  0.700   2.1
                               ***Turning on AO-DIIS***
    3    -6124.2852819479867321    -1.80e-01  1.69e-03  4.75e-02  3.46e-02  0.700   2.2
    4    -6124.4129923572563712    -1.28e-01  4.26e-03  1.90e-01  3.18e-02  0.000   2.3
    5    -6124.7454386060271645    -3.32e-01  1.20e-03  2.75e-02  3.58e-02  0.000   2.3
    6    -6124.7660017219186557    -2.06e-02  7.51e-04  1.98e-02  1.49e-02  0.000   2.2
    7    -6124.7715563230594853    -5.55e-03  6.08e-04  1.86e-02  2.02e-02  0.000   1.8
    8    -6124.7779864737767639    -6.43e-03  5.70e-04  1.66e-02  1.64e-02  0.000   1.6
    9    -6124.7837380112596293    -5.75e-03  6.30e-04  3.27e-02  1.09e-02  0.000   1.7
   10    -6124.7872402666798735    -3.50e-03  5.28e-04  1.89e-02  1.16e-02  0.000   1.8
   11    -6124.7931639971848199    -5.92e-03  5.23e-04  2.01e-02  6.38e-03  0.000   1.7
   12    -6124.7972071206768305    -4.04e-03  5.15e-04  2.09e-02  6.75e-03  0.000   1.6
   13    -6124.8002442874767439    -3.04e-03  5.12e-04  2.20e-02  1.03e-02  0.000   1.7
   14    -6124.8015133703793254    -1.27e-03  4.92e-04  2.26e-02  1.49e-02  0.000   1.7
   15    -6124.8012802207977074     2.33e-04  4.78e-04  2.17e-02  1.98e-02  0.000   1.7
   16    -6124.7981719351555512     3.11e-03  4.42e-04  1.98e-02  2.46e-02  0.000   1.7
   17    -6124.7947070130176144     3.46e-03  3.87e-04  1.66e-02  2.78e-02  0.000   1.7
   18    -6124.7940714378692064     6.36e-04  3.54e-04  1.50e-02  2.99e-02  0.000   1.7
   19    -6124.7925421491509042     1.53e-03  3.64e-04  1.51e-02  3.36e-02  0.000   1.7
   20    -6124.7950608196679241    -2.52e-03  6.25e-04  1.34e-02  2.89e-02  0.000   1.7
               *** Restarting incremental Fock matrix formation ***
                             ****Resetting DIIS****
Warning: op=0 Small HOMO/LUMO gap (   0.077) - skipping pre-diagonalization
         Will do a full diagonalization
   21    -6124.8107803289822186    -1.57e-02  5.82e-03  2.37e-01  1.43e-02  0.000   2.3
   22    -6124.3633294520295749     4.47e-01  1.18e-03  3.39e-02  1.25e-01  0.000   1.7
   23    -6124.5468196637139044    -1.83e-01  3.34e-04  1.38e-02  8.52e-02  0.700   1.7
   24    -6124.5790673050196347    -3.22e-02  1.96e-03  8.40e-02  7.94e-02  0.000   1.6
   25    -6124.7257837978540920    -1.47e-01  1.12e-03  4.58e-02  5.16e-02  0.000   1.8
   26    -6124.7743352795787359    -4.86e-02  2.24e-03  8.23e-02  3.44e-02  0.000   1.7
   27    -6124.8186642982745980    -4.43e-02  1.06e-03  2.27e-02  8.76e-03  0.000   1.8
   28    -6124.8122921506255807     6.37e-03  6.02e-04  2.34e-02  1.94e-02  0.000   1.7
   29    -6124.8168805031109514    -4.59e-03  3.56e-04  1.90e-02  2.28e-02  0.000   1.7
   30    -6124.8206321322686563    -3.75e-03  2.17e-04  5.34e-03  1.01e-02  0.000   1.7
   31    -6124.8220827180903143    -1.45e-03  7.29e-04  2.15e-02  5.12e-03  0.000   1.8
   32    -6124.8160217135664425     6.06e-03  4.63e-04  1.48e-02  1.90e-02  0.000   1.7
   33    -6124.8218106297863415    -5.79e-03  1.92e-04  8.39e-03  7.58e-03  0.000   1.7
                              *** Initializing SOSCF ***
---------------------------------------S-O-S-C-F--------------------------------------
Iteration    Energy (Eh)           Delta-E    RMSDP     MaxDP     MaxGrad    Time(sec)
--------------------------------------------------------------------------------------
   34    -6124.8226106977126619    -8.00e-04  1.40e-04  4.19e-03  3.19e-03     2.0
               *** Restarting incremental Fock matrix formation ***
   35    -6124.8226320215690066    -2.13e-05  5.28e-04  3.00e-02  7.74e-03     1.7
   36    -6124.8135025589308498     9.13e-03  4.61e-04  2.67e-02  6.17e-02     1.5
   37    -6124.8227127605259739    -9.21e-03  2.09e-04  6.25e-03  1.79e-03     1.6
   38    -6124.8218475768353528     8.65e-04  1.62e-04  5.69e-03  6.22e-03     1.5
   39    -6124.8228001571278583    -9.53e-04  7.68e-05  2.01e-03  9.99e-04     1.5
   40    -6124.8226732289531355     1.27e-04  5.79e-05  1.72e-03  2.76e-03     1.5
   41    -6124.8228173984171008    -1.44e-04  2.33e-05  7.17e-04  2.34e-04     1.6
   42    -6124.8228134196488099     3.98e-06  1.58e-05  4.28e-04  7.09e-04     1.5
   43    -6124.8228203450580622    -6.93e-06  1.83e-05  3.99e-04  1.88e-04     1.9
   44    -6124.8228218977365032    -1.55e-06  5.38e-05  1.22e-03  1.31e-04     1.5
   45    -6124.8228253980632871    -3.50e-06  6.95e-05  1.55e-03  1.37e-04     1.5
   46    -6124.8228276077443297    -2.21e-06  1.71e-05  3.01e-04  9.10e-05     1.5
   47    -6124.8228276586160064    -5.09e-08  8.28e-06  1.91e-04  4.67e-05     1.5
   48    -6124.8228279735394608    -3.15e-07  6.77e-06  1.63e-04  3.36e-05     1.6
   49    -6124.8228280879629892    -1.14e-07  4.97e-06  9.98e-05  3.23e-05     1.5
   50    -6124.8228281232986774    -3.53e-08  5.94e-06  1.44e-04  3.00e-05     1.6
   51    -6124.8228281585270452    -3.52e-08  8.27e-06  2.19e-04  2.34e-05     1.5
   52    -6124.8228282013478747    -4.28e-08  6.94e-06  1.78e-04  1.61e-05     1.5
   53    -6124.8228282500676869    -4.87e-08  2.93e-06  7.50e-05  1.25e-05     1.6
   54    -6124.8228282269410556     2.31e-08  1.31e-06  3.51e-05  1.42e-05     1.5
               *** Restarting incremental Fock matrix formation ***
   55    -6124.8228283163789456    -8.94e-08  9.92e-07  2.64e-05  7.61e-06     1.9
   56    -6124.8228283751886920    -5.88e-08  1.51e-06  4.51e-05  5.61e-06     1.5
   57    -6124.8228283773078147    -2.12e-09  1.78e-06  5.06e-05  4.57e-06     1.5
                 **** Energy Check signals convergence ****

               *****************************************************
               *                     SUCCESS                       *
               *           SCF CONVERGED AFTER  57 CYCLES          *
               *****************************************************

             **** ENERGY FILE WAS UPDATED (CU2_BP_ZORA.en.tmp) ****

----------------
TOTAL SCF ENERGY
----------------

Total Energy       :      -6124.82282841939195 Eh         -166664.90224 eV

Components:
Nuclear Repulsion  :       8932.01768385157811 Eh          243052.55773 eV
Electronic Energy  :     -15056.84051227097007 Eh         -409717.45997 eV
One Electron Energy:     -26397.05434344275272 Eh         -718300.36637 eV
Two Electron Energy:      11340.21383117178266 Eh          308582.90640 eV

Virial components:
Potential Energy   :     -12329.72177301531156 Eh         -335508.78638 eV
Kinetic Energy     :       6204.89894459591960 Eh          168843.88414 eV
Virial Ratio       :          1.98709469454837

DFT components:
N(Alpha)           :      197.999685096813 electrons
N(Beta)            :      195.999676203258 electrons
N(Total)           :      393.999361300071 electrons
E(X)               :     -458.613979725059 Eh       
E(C)               :      -16.042209203679 Eh       
E(XC)              :     -474.656188928738 Eh       

---------------
SCF CONVERGENCE
---------------

  Last Energy change         ...    2.1191e-09  Tolerance :   1.0000e-08
  Last MAX-Density change    ...    5.0574e-05  Tolerance :   1.0000e-07
  Last RMS-Density change    ...    1.7800e-06  Tolerance :   5.0000e-09
  Last DIIS Error            ...    3.1897e-03  Tolerance :   5.0000e-07
  Last Orbital Gradient      ...    4.5703e-06  Tolerance :   1.0000e-05
  Last Orbital Rotation      ...    3.0102e-04  Tolerance :   1.0000e-05


----------------------
UHF SPIN CONTAMINATION
----------------------

Warning: in a DFT calculation there is little theoretical justification to 
         calculate <S**2> as in Hartree-Fock theory. We will do it anyways
         but you should keep in mind that the values have only limited relevance

Expectation value of <S**2>     :     2.004136
Ideal value S*(S+1) for S=1.0   :     2.000000
Deviation                       :     0.004136


                    ********************************
                    * MULLIKEN POPULATION ANALYSIS *
                    ********************************

--------------------------------------------
MULLIKEN ATOMIC CHARGES AND SPIN POPULATIONS
--------------------------------------------
   0 Cu:    0.455457    0.527011
   1 O :   -0.288126    0.040263
   2 O :   -0.279778    0.040675
   3 O :   -0.271511    0.038478
   4 O :   -0.309660    0.051991
   5 O :   -0.496425    0.266455
   6 O :   -0.369162    0.000689
   7 C :    0.111700   -0.005681
   8 C :    0.226099    0.013845
   9 C :    0.126038   -0.005472
  10 C :    0.215219    0.014509
  11 C :    0.161468   -0.009948
  12 H :   -0.014582    0.016147
  13 H :    0.000311    0.005987
  14 C :    0.104798    0.001788
  15 H :    0.036307    0.000683
  16 H :   -0.038118   -0.000620
  17 C :    0.045478   -0.000105
  18 H :    0.038274   -0.000046
  19 C :   -0.097935    0.000156
  20 H :    0.036165   -0.000113
  21 H :    0.014788   -0.000038
  22 H :    0.028802   -0.000022
  23 C :   -0.088096   -0.000015
  24 H :    0.076615    0.000027
  25 H :    0.027978   -0.000003
  26 H :    0.013480    0.000008
  27 F :   -0.089336    0.000687
  28 F :   -0.060156    0.000403
  29 F :   -0.077013    0.000416
  30 F :   -0.081614    0.000781
  31 F :   -0.071116    0.000418
  32 F :   -0.086345    0.000625
  33 Cu:    0.455442    0.527033
  34 O :   -0.288109    0.040279
  35 O :   -0.279761    0.040691
  36 O :   -0.271514    0.038492
  37 O :   -0.309662    0.052005
  38 O :   -0.496442    0.266412
  39 O :   -0.369162    0.000688
  40 C :    0.111701   -0.005680
  41 C :    0.226099    0.013845
  42 C :    0.126038   -0.005472
  43 C :    0.215218    0.014509
  44 C :    0.161477   -0.009945
  45 H :   -0.014586    0.016146
  46 H :    0.000304    0.005984
  47 C :    0.104801    0.001790
  48 H :    0.036304    0.000683
  49 H :   -0.038120   -0.000619
  50 C :    0.045484   -0.000105
  51 H :    0.038272   -0.000046
  52 C :   -0.097937    0.000156
  53 H :    0.036164   -0.000113
  54 H :    0.014787   -0.000038
  55 H :    0.028801   -0.000022
  56 C :   -0.088096   -0.000015
  57 H :    0.076613    0.000027
  58 H :    0.027977   -0.000003
  59 H :    0.013479    0.000008
  60 F :   -0.089336    0.000687
  61 F :   -0.060155    0.000403
  62 F :   -0.077014    0.000416
  63 F :   -0.081613    0.000781
  64 F :   -0.071114    0.000418
  65 F :   -0.086346    0.000625
Sum of atomic charges         :   -2.0000000
Sum of atomic spin populations:    2.0000000

-----------------------------------------------------
MULLIKEN REDUCED ORBITAL CHARGES AND SPIN POPULATIONS
-----------------------------------------------------
CHARGE
  0 Cus       :     6.606424  s :     6.606424
      pz      :     4.174626  p :    12.556702
      px      :     4.177615
      py      :     4.204461
      dz2     :     1.843021  d :     9.381125
      dxz     :     1.799266
      dyz     :     1.947932
      dx2y2   :     1.812777
      dxy     :     1.978130
      f0      :     0.000049  f :     0.000292
      f+1     :     0.000071
      f-1     :     0.000024
      f+2     :     0.000055
      f-2     :     0.000024
      f+3     :     0.000035
      f-3     :     0.000034

  1 O s       :     3.764043  s :     3.764043
      pz      :     1.579448  p :     4.508724
      px      :     1.598617
      py      :     1.330659
      dz2     :     0.001822  d :     0.015359
      dxz     :     0.000593
      dyz     :     0.003959
      dx2y2   :     0.005109
      dxy     :     0.003876

  2 O s       :     3.762884  s :     3.762884
      pz      :     1.502988  p :     4.501545
      px      :     1.522935
      py      :     1.475623
      dz2     :     0.002224  d :     0.015349
      dxz     :     0.001290
      dyz     :     0.003956
      dx2y2   :     0.003596
      dxy     :     0.004282

  3 O s       :     3.762530  s :     3.762530
      pz      :     1.501409  p :     4.493304
      px      :     1.543390
      py      :     1.448505
      dz2     :     0.002418  d :     0.015677
      dxz     :     0.001432
      dyz     :     0.004888
      dx2y2   :     0.003533
      dxy     :     0.003407

  4 O s       :     3.768357  s :     3.768357
      pz      :     1.636187  p :     4.526604
      px      :     1.530089
      py      :     1.360327
      dz2     :     0.002126  d :     0.014699
      dxz     :     0.000590
      dyz     :     0.003324
      dx2y2   :     0.004494
      dxy     :     0.004165

  5 O s       :     3.854718  s :     3.854718
      pz      :     1.401131  p :     4.633421
      px      :     1.832714
      py      :     1.399576
      dz2     :     0.002465  d :     0.008285
      dxz     :     0.001361
      dyz     :     0.003031
      dx2y2   :     0.000816
      dxy     :     0.000612

  6 O s       :     3.802548  s :     3.802548
      pz      :     1.583329  p :     4.551994
      px      :     1.173912
      py      :     1.794753
      dz2     :     0.002127  d :     0.014621
      dxz     :     0.005888
      dyz     :     0.002052
      dx2y2   :     0.002167
      dxy     :     0.002386

  7 C s       :     3.054908  s :     3.054908
      pz      :     0.896437  p :     2.693600
      px      :     0.897158
      py      :     0.900004
      dz2     :     0.011455  d :     0.139792
      dxz     :     0.010466
      dyz     :     0.036188
      dx2y2   :     0.042419
      dxy     :     0.039266

  8 C s       :     2.973841  s :     2.973841
      pz      :     0.858603  p :     2.612634
      px      :     0.974645
      py      :     0.779387
      dz2     :     0.039494  d :     0.187426
      dxz     :     0.033578
      dyz     :     0.037903
      dx2y2   :     0.039891
      dxy     :     0.036560

  9 C s       :     3.056041  s :     3.056041
      pz      :     0.897307  p :     2.679227
      px      :     0.891904
      py      :     0.890017
      dz2     :     0.028731  d :     0.138694
      dxz     :     0.009660
      dyz     :     0.039273
      dx2y2   :     0.027664
      dxy     :     0.033366

 10 C s       :     2.978479  s :     2.978479
      pz      :     1.025984  p :     2.621096
      px      :     0.803664
      py      :     0.791448
      dz2     :     0.033290  d :     0.185205
      dxz     :     0.036622
      dyz     :     0.029259
      dx2y2   :     0.039164
      dxy     :     0.046871

 11 C s       :     2.898402  s :     2.898402
      pz      :     0.889213  p :     2.868419
      px      :     1.014342
      py      :     0.964865
      dz2     :     0.013970  d :     0.071711
      dxz     :     0.022635
      dyz     :     0.013313
      dx2y2   :     0.016728
      dxy     :     0.005064

 12 H s       :     0.992405  s :     0.992405
      pz      :     0.005336  p :     0.022176
      px      :     0.007126
      py      :     0.009715

 13 H s       :     0.977369  s :     0.977369
      pz      :     0.006393  p :     0.022320
      px      :     0.010208
      py      :     0.005719

 14 C s       :     2.918714  s :     2.918714
      pz      :     0.964939  p :     2.909451
      px      :     0.846626
      py      :     1.097887
      dz2     :     0.011290  d :     0.067036
      dxz     :     0.013815
      dyz     :     0.014182
      dx2y2   :     0.017825
      dxy     :     0.009923

 15 H s       :     0.941760  s :     0.941760
      pz      :     0.005793  p :     0.021933
      px      :     0.003634
      py      :     0.012506

 16 H s       :     1.015148  s :     1.015148
      pz      :     0.009559  p :     0.022969
      px      :     0.004597
      py      :     0.008813

 17 C s       :     3.056270  s :     3.056270
      pz      :     0.952903  p :     2.826755
      px      :     0.853236
      py      :     1.020616
      dz2     :     0.009427  d :     0.071497
      dxz     :     0.018364
      dyz     :     0.015742
      dx2y2   :     0.016135
      dxy     :     0.011828

 18 H s       :     0.941599  s :     0.941599
      pz      :     0.006061  p :     0.020127
      px      :     0.003769
      py      :     0.010297

 19 C s       :     2.888103  s :     2.888103
      pz      :     1.052412  p :     3.172608
      px      :     1.052823
      py      :     1.067374
      dz2     :     0.003276  d :     0.037224
      dxz     :     0.013053
      dyz     :     0.007113
      dx2y2   :     0.010155
      dxy     :     0.003627

 20 H s       :     0.937897  s :     0.937897
      pz      :     0.008864  p :     0.025938
      px      :     0.010442
      py      :     0.006633

 21 H s       :     0.959185  s :     0.959185
      pz      :     0.008297  p :     0.026027
      px      :     0.010461
      py      :     0.007269

 22 H s       :     0.946106  s :     0.946106
      pz      :     0.007769  p :     0.025092
      px      :     0.006950
      py      :     0.010372

 23 C s       :     2.902097  s :     2.902097
      pz      :     1.054871  p :     3.150290
      px      :     1.006120
      py      :     1.089298
      dz2     :     0.002475  d :     0.035709
      dxz     :     0.008130
      dyz     :     0.012256
      dx2y2   :     0.008505
      dxy     :     0.004343

 24 H s       :     0.898516  s :     0.898516
      pz      :     0.008761  p :     0.024870
      px      :     0.006882
      py      :     0.009226

 25 H s       :     0.946644  s :     0.946644
      pz      :     0.007658  p :     0.025378
      px      :     0.006884
      py      :     0.010836

 26 H s       :     0.960767  s :     0.960767
      pz      :     0.007897  p :     0.025753
      px      :     0.009977
      py      :     0.007878

 27 F s       :     3.894945  s :     3.894945
      pz      :     1.502710  p :     5.186335
      px      :     1.868353
      py      :     1.815273
      dz2     :     0.003392  d :     0.008056
      dxz     :     0.001762
      dyz     :     0.002268
      dx2y2   :     0.000308
      dxy     :     0.000326

 28 F s       :     3.877914  s :     3.877914
      pz      :     1.862235  p :     5.173540
      px      :     1.842567
      py      :     1.468738
      dz2     :     0.001189  d :     0.008702
      dxz     :     0.000175
      dyz     :     0.001854
      dx2y2   :     0.003186
      dxy     :     0.002298

 29 F s       :     3.889870  s :     3.889870
      pz      :     1.815832  p :     5.178901
      px      :     1.612323
      py      :     1.750746
      dz2     :     0.001105  d :     0.008242
      dxz     :     0.001833
      dyz     :     0.000998
      dx2y2   :     0.001810
      dxy     :     0.002496

 30 F s       :     3.887922  s :     3.887922
      pz      :     1.698485  p :     5.185347
      px      :     1.635700
      py      :     1.851162
      dz2     :     0.001550  d :     0.008345
      dxz     :     0.003166
      dyz     :     0.000812
      dx2y2   :     0.001599
      dxy     :     0.001218

 31 F s       :     3.881161  s :     3.881161
      pz      :     1.822359  p :     5.181492
      px      :     1.749846
      py      :     1.609287
      dz2     :     0.001125  d :     0.008463
      dxz     :     0.000901
      dyz     :     0.001832
      dx2y2   :     0.001870
      dxy     :     0.002735

 32 F s       :     3.887811  s :     3.887811
      pz      :     1.870759  p :     5.190511
      px      :     1.713854
      py      :     1.605898
      dz2     :     0.001137  d :     0.008023
      dxz     :     0.000721
      dyz     :     0.001259
      dx2y2   :     0.001778
      dxy     :     0.003128

 33 Cus       :     6.606434  s :     6.606434
      pz      :     4.174629  p :    12.556719
      px      :     4.177619
      py      :     4.204470
      dz2     :     1.843015  d :     9.381113
      dxz     :     1.799222
      dyz     :     1.947945
      dx2y2   :     1.812804
      dxy     :     1.978127
      f0      :     0.000049  f :     0.000292
      f+1     :     0.000071
      f-1     :     0.000024
      f+2     :     0.000055
      f-2     :     0.000024
      f+3     :     0.000035
      f-3     :     0.000034

 34 O s       :     3.764041  s :     3.764041
      pz      :     1.579444  p :     4.508708
      px      :     1.598607
      py      :     1.330658
      dz2     :     0.001822  d :     0.015359
      dxz     :     0.000592
      dyz     :     0.003959
      dx2y2   :     0.005109
      dxy     :     0.003876

 35 O s       :     3.762883  s :     3.762883
      pz      :     1.502984  p :     4.501529
      px      :     1.522925
      py      :     1.475620
      dz2     :     0.002224  d :     0.015349
      dxz     :     0.001290
      dyz     :     0.003956
      dx2y2   :     0.003596
      dxy     :     0.004282

 36 O s       :     3.762530  s :     3.762530
      pz      :     1.501405  p :     4.493307
      px      :     1.543395
      py      :     1.448507
      dz2     :     0.002418  d :     0.015677
      dxz     :     0.001432
      dyz     :     0.004888
      dx2y2   :     0.003533
      dxy     :     0.003407

 37 O s       :     3.768358  s :     3.768358
      pz      :     1.636182  p :     4.526606
      px      :     1.530095
      py      :     1.360330
      dz2     :     0.002126  d :     0.014698
      dxz     :     0.000590
      dyz     :     0.003324
      dx2y2   :     0.004494
      dxy     :     0.004165

 38 O s       :     3.854715  s :     3.854715
      pz      :     1.401129  p :     4.633442
      px      :     1.832742
      py      :     1.399571
      dz2     :     0.002465  d :     0.008285
      dxz     :     0.001361
      dyz     :     0.003031
      dx2y2   :     0.000816
      dxy     :     0.000612

 39 O s       :     3.802548  s :     3.802548
      pz      :     1.583329  p :     4.551994
      px      :     1.173913
      py      :     1.794752
      dz2     :     0.002127  d :     0.014621
      dxz     :     0.005888
      dyz     :     0.002052
      dx2y2   :     0.002167
      dxy     :     0.002386

 40 C s       :     3.054908  s :     3.054908
      pz      :     0.896437  p :     2.693599
      px      :     0.897158
      py      :     0.900004
      dz2     :     0.011455  d :     0.139792
      dxz     :     0.010466
      dyz     :     0.036187
      dx2y2   :     0.042419
      dxy     :     0.039265

 41 C s       :     2.973841  s :     2.973841
      pz      :     0.858603  p :     2.612634
      px      :     0.974645
      py      :     0.779387
      dz2     :     0.039494  d :     0.187426
      dxz     :     0.033578
      dyz     :     0.037903
      dx2y2   :     0.039891
      dxy     :     0.036560

 42 C s       :     3.056041  s :     3.056041
      pz      :     0.897306  p :     2.679227
      px      :     0.891904
      py      :     0.890017
      dz2     :     0.028731  d :     0.138694
      dxz     :     0.009660
      dyz     :     0.039274
      dx2y2   :     0.027664
      dxy     :     0.033366

 43 C s       :     2.978480  s :     2.978480
      pz      :     1.025984  p :     2.621097
      px      :     0.803664
      py      :     0.791449
      dz2     :     0.033290  d :     0.185205
      dxz     :     0.036622
      dyz     :     0.029259
      dx2y2   :     0.039164
      dxy     :     0.046871

 44 C s       :     2.898397  s :     2.898397
      pz      :     0.889212  p :     2.868415
      px      :     1.014339
      py      :     0.964864
      dz2     :     0.013970  d :     0.071711
      dxz     :     0.022635
      dyz     :     0.013313
      dx2y2   :     0.016728
      dxy     :     0.005064

 45 H s       :     0.992410  s :     0.992410
      pz      :     0.005336  p :     0.022176
      px      :     0.007126
      py      :     0.009715

 46 H s       :     0.977376  s :     0.977376
      pz      :     0.006393  p :     0.022320
      px      :     0.010208
      py      :     0.005719

 47 C s       :     2.918714  s :     2.918714
      pz      :     0.964939  p :     2.909450
      px      :     0.846626
      py      :     1.097885
      dz2     :     0.011290  d :     0.067036
      dxz     :     0.013815
      dyz     :     0.014182
      dx2y2   :     0.017825
      dxy     :     0.009923

 48 H s       :     0.941763  s :     0.941763
      pz      :     0.005794  p :     0.021933
      px      :     0.003634
      py      :     0.012506

 49 H s       :     1.015151  s :     1.015151
      pz      :     0.009559  p :     0.022969
      px      :     0.004597
      py      :     0.008813

 50 C s       :     3.056267  s :     3.056267
      pz      :     0.952902  p :     2.826753
      px      :     0.853236
      py      :     1.020615
      dz2     :     0.009427  d :     0.071497
      dxz     :     0.018364
      dyz     :     0.015742
      dx2y2   :     0.016135
      dxy     :     0.011828

 51 H s       :     0.941601  s :     0.941601
      pz      :     0.006061  p :     0.020127
      px      :     0.003769
      py      :     0.010297

 52 C s       :     2.888104  s :     2.888104
      pz      :     1.052412  p :     3.172609
      px      :     1.052822
      py      :     1.067374
      dz2     :     0.003276  d :     0.037224
      dxz     :     0.013053
[...]
      py      :     0.000002
      dz2     :    -0.000000  d :    -0.000000
      dxz     :    -0.000000
      dyz     :    -0.000001
      dx2y2   :     0.000001
      dxy     :     0.000000

 57 H s       :     0.000000  s :     0.000000
      pz      :    -0.000000  p :     0.000000
      px      :     0.000001
      py      :    -0.000000

 58 H s       :    -0.000002  s :    -0.000002
      pz      :     0.000001  p :     0.000001
      px      :    -0.000000
      py      :    -0.000000

 59 H s       :     0.000006  s :     0.000006
      pz      :     0.000000  p :     0.000001
      px      :     0.000001
      py      :     0.000000

 60 F s       :    -0.000018  s :    -0.000018
      pz      :    -0.000198  p :    -0.000258
      px      :    -0.000087
      py      :     0.000027
      dz2     :    -0.000001  d :    -0.000000
      dxz     :    -0.000001
      dyz     :     0.000000
      dx2y2   :    -0.000000
      dxy     :     0.000001

 61 F s       :     0.000040  s :     0.000040
      pz      :     0.000173  p :     0.000613
      px      :     0.000381
      py      :     0.000058
      dz2     :     0.000000  d :     0.000007
      dxz     :     0.000000
      dyz     :     0.000002
      dx2y2   :     0.000000
      dxy     :     0.000004

 62 F s       :    -0.000011  s :    -0.000011
      pz      :     0.000041  p :    -0.000128
      px      :    -0.000203
      py      :     0.000033
      dz2     :    -0.000000  d :     0.000003
      dxz     :     0.000000
      dyz     :     0.000001
      dx2y2   :    -0.000000
      dxy     :     0.000002

 63 F s       :    -0.000002  s :    -0.000002
      pz      :    -0.000207  p :    -0.000078
      px      :     0.000021
      py      :     0.000107
      dz2     :    -0.000009  d :    -0.000008
      dxz     :    -0.000003
      dyz     :     0.000003
      dx2y2   :     0.000000
      dxy     :     0.000000

 64 F s       :     0.000075  s :     0.000075
      pz      :     0.000783  p :     0.001068
      px      :     0.000263
      py      :     0.000022
      dz2     :     0.000000  d :     0.000008
      dxz     :     0.000008
      dyz     :    -0.000003
      dx2y2   :     0.000001
      dxy     :     0.000001

 65 F s       :    -0.000105  s :    -0.000105
      pz      :    -0.001055  p :    -0.001597
      px      :    -0.000385
      py      :    -0.000157
      dz2     :    -0.000000  d :    -0.000028
      dxz     :    -0.000010
      dyz     :    -0.000010
      dx2y2   :    -0.000001
      dxy     :    -0.000007



                      *****************************
                      * MAYER POPULATION ANALYSIS *
                      *****************************

  NA   - Mulliken gross atomic population
  ZA   - Total nuclear charge
  QA   - Mulliken gross atomic charge
  VA   - Mayer's total valence
  BVA  - Mayer's bonded valence
  FA   - Mayer's free valence

  ATOM       NA         ZA         QA         VA         BVA        FA
  0 Cu    28.5459    29.0000     0.4541     3.0613     2.8169     0.2444
  1 O      8.2844     8.0000    -0.2844     2.2604     2.2595     0.0008
  2 O      8.2786     8.0000    -0.2786     2.2518     2.2515     0.0003
  3 O      8.2677     8.0000    -0.2677     2.2736     2.2718     0.0017
  4 O      8.3029     8.0000    -0.3029     2.2499     2.2453     0.0046
  5 O      8.5082     8.0000    -0.5082     2.0537     2.0142     0.0395
  6 O      8.3690     8.0000    -0.3690     2.0957     2.0957     0.0000
  7 C      5.8906     6.0000     0.1094     4.1364     4.1364     0.0000
  8 C      5.7734     6.0000     0.2266     4.6042     4.6042     0.0000
  9 C      5.8689     6.0000     0.1311     4.1122     4.1122     0.0000
 10 C      5.7821     6.0000     0.2179     4.6471     4.6470     0.0000
 11 C      5.8369     6.0000     0.1631     4.1038     4.1037     0.0001
 12 H      1.0211     1.0000    -0.0211     0.9737     0.9737     0.0001
 13 H      1.0012     1.0000    -0.0012     0.9753     0.9751     0.0001
 14 C      5.8939     6.0000     0.1061     3.8990     3.8990     0.0000
 15 H      0.9678     1.0000     0.0322     1.0316     1.0316     0.0000
 16 H      1.0408     1.0000    -0.0408     0.9785     0.9785     0.0000
 17 C      5.9538     6.0000     0.0462     4.1883     4.1883     0.0000
 18 H      0.9626     1.0000     0.0374     1.0166     1.0166     0.0000
 19 C      6.0974     6.0000    -0.0974     3.8898     3.8898     0.0000
 20 H      0.9641     1.0000     0.0359     0.9998     0.9998     0.0000
 21 H      0.9858     1.0000     0.0142     0.9937     0.9937     0.0000
 22 H      0.9713     1.0000     0.0287     1.0117     1.0117     0.0000
 23 C      6.0880     6.0000    -0.0880     3.9156     3.9156     0.0000
 24 H      0.9243     1.0000     0.0757     1.0312     1.0312     0.0000
 25 H      0.9720     1.0000     0.0280     1.0051     1.0051     0.0000
 26 H      0.9868     1.0000     0.0132     0.9870     0.9870     0.0000
 27 F      9.0892     9.0000    -0.0892     1.2641     1.2641     0.0000
 28 F      9.0598     9.0000    -0.0598     1.3068     1.3068     0.0000
 29 F      9.0768     9.0000    -0.0768     1.2811     1.2811     0.0000
 30 F      9.0801     9.0000    -0.0801     1.2770     1.2770     0.0000
 31 F      9.0698     9.0000    -0.0698     1.2898     1.2898     0.0000
 32 F      9.0848     9.0000    -0.0848     1.2747     1.2747     0.0000
 33 Cu    28.5459    29.0000     0.4541     3.0613     2.8169     0.2444
 34 O      8.2844     8.0000    -0.2844     2.2604     2.2595     0.0008
 35 O      8.2786     8.0000    -0.2786     2.2518     2.2515     0.0003
 36 O      8.2677     8.0000    -0.2677     2.2736     2.2718     0.0017
 37 O      8.3029     8.0000    -0.3029     2.2499     2.2453     0.0046
 38 O      8.5082     8.0000    -0.5082     2.0537     2.0142     0.0395
 39 O      8.3690     8.0000    -0.3690     2.0957     2.0957     0.0000
 40 C      5.8906     6.0000     0.1094     4.1364     4.1364     0.0000
 41 C      5.7734     6.0000     0.2266     4.6042     4.6042     0.0000
 42 C      5.8689     6.0000     0.1311     4.1122     4.1122     0.0000
 43 C      5.7821     6.0000     0.2179     4.6471     4.6470     0.0000
 44 C      5.8368     6.0000     0.1632     4.1038     4.1037     0.0001
 45 H      1.0211     1.0000    -0.0211     0.9737     0.9737     0.0001
 46 H      1.0012     1.0000    -0.0012     0.9753     0.9751     0.0001
 47 C      5.8939     6.0000     0.1061     3.8990     3.8990     0.0000
 48 H      0.9678     1.0000     0.0322     1.0316     1.0316     0.0000
 49 H      1.0408     1.0000    -0.0408     0.9785     0.9785     0.0000
 50 C      5.9538     6.0000     0.0462     4.1883     4.1883     0.0000
 51 H      0.9626     1.0000     0.0374     1.0166     1.0166     0.0000
 52 C      6.0974     6.0000    -0.0974     3.8898     3.8898     0.0000
 53 H      0.9641     1.0000     0.0359     0.9998     0.9998     0.0000
 54 H      0.9858     1.0000     0.0142     0.9937     0.9937     0.0000
 55 H      0.9713     1.0000     0.0287     1.0117     1.0117     0.0000
 56 C      6.0880     6.0000    -0.0880     3.9156     3.9156     0.0000
 57 H      0.9243     1.0000     0.0757     1.0312     1.0312     0.0000
 58 H      0.9720     1.0000     0.0280     1.0051     1.0051     0.0000
 59 H      0.9868     1.0000     0.0132     0.9870     0.9870     0.0000
 60 F      9.0892     9.0000    -0.0892     1.2641     1.2641     0.0000
 61 F      9.0598     9.0000    -0.0598     1.3068     1.3068     0.0000
 62 F      9.0768     9.0000    -0.0768     1.2811     1.2811     0.0000
 63 F      9.0801     9.0000    -0.0801     1.2770     1.2770     0.0000
 64 F      9.0698     9.0000    -0.0698     1.2898     1.2898     0.0000
 65 F      9.0848     9.0000    -0.0848     1.2747     1.2747     0.0000

  Mayer bond orders larger than 0.100000
B(  0-Cu,  1-O ) :   0.3720 B(  0-Cu,  2-O ) :   0.3672 B(  0-Cu,  3-O ) :   0.3797 
B(  0-Cu,  4-O ) :   0.4119 B(  0-Cu,  5-O ) :   0.6312 B(  0-Cu, 33-Cu) :   0.2869 
B(  1-O ,  7-C ) :   1.5963 B(  1-O , 35-O ) :   0.1539 B(  2-O , 34-O ) :   0.1539 
B(  2-O , 40-C ) :   1.6233 B(  3-O ,  9-C ) :   1.6340 B(  3-O , 37-O ) :   0.1520 
B(  4-O , 36-O ) :   0.1520 B(  4-O , 42-C ) :   1.5575 B(  5-O , 11-C ) :   1.1780 
B(  6-O , 14-C ) :   0.9694 B(  6-O , 17-C ) :   1.0375 B(  7-C ,  8-C ) :   0.8296 
B(  7-C , 35-O ) :   1.6233 B(  8-C , 27-F ) :   1.2018 B(  8-C , 28-F ) :   1.2650 
B(  8-C , 29-F ) :   1.2232 B(  9-C , 10-C ) :   0.8345 B(  9-C , 37-O ) :   1.5575 
B( 10-C , 30-F ) :   1.2393 B( 10-C , 31-F ) :   1.2529 B( 10-C , 32-F ) :   1.2355 
B( 11-C , 12-H ) :   0.9322 B( 11-C , 13-H ) :   0.9331 B( 11-C , 14-C ) :   1.0064 
B( 14-C , 15-H ) :   0.9401 B( 14-C , 16-H ) :   0.9235 B( 17-C , 18-H ) :   0.9499 
B( 17-C , 19-C ) :   1.0337 B( 17-C , 23-C ) :   1.0467 B( 19-C , 20-H ) :   0.9610 
B( 19-C , 21-H ) :   0.9569 B( 19-C , 22-H ) :   0.9600 B( 23-C , 24-H ) :   0.9572 
B( 23-C , 25-H ) :   0.9650 B( 23-C , 26-H ) :   0.9616 B( 33-Cu, 34-O ) :   0.3720 
B( 33-Cu, 35-O ) :   0.3672 B( 33-Cu, 36-O ) :   0.3797 B( 33-Cu, 37-O ) :   0.4119 
B( 33-Cu, 38-O ) :   0.6312 B( 34-O , 40-C ) :   1.5963 B( 36-O , 42-C ) :   1.6340 
B( 38-O , 44-C ) :   1.1780 B( 39-O , 47-C ) :   0.9694 B( 39-O , 50-C ) :   1.0375 
B( 40-C , 41-C ) :   0.8296 B( 41-C , 60-F ) :   1.2018 B( 41-C , 61-F ) :   1.2650 
B( 41-C , 62-F ) :   1.2232 B( 42-C , 43-C ) :   0.8345 B( 43-C , 63-F ) :   1.2393 
B( 43-C , 64-F ) :   1.2529 B( 43-C , 65-F ) :   1.2355 B( 44-C , 45-H ) :   0.9322 
B( 44-C , 46-H ) :   0.9331 B( 44-C , 47-C ) :   1.0064 B( 47-C , 48-H ) :   0.9401 
B( 47-C , 49-H ) :   0.9235 B( 50-C , 51-H ) :   0.9499 B( 50-C , 52-C ) :   1.0337 
B( 50-C , 56-C ) :   1.0467 B( 52-C , 53-H ) :   0.9610 B( 52-C , 54-H ) :   0.9569 
B( 52-C , 55-H ) :   0.9600 B( 56-C , 57-H ) :   0.9572 B( 56-C , 58-H ) :   0.9650 
B( 56-C , 59-H ) :   0.9616 

-------
TIMINGS
-------

Total SCF time: 0 days 0 hours 2 min 13 sec 

Total time                  ....     133.370 sec
Sum of individual times     ....     122.510 sec  ( 91.9%)

Fock matrix formation       ....      80.792 sec  ( 60.6%)
  Startup                   ....       0.849 sec  (  1.1% of F)
  Split-RI-J                ....      41.135 sec  ( 50.9% of F)
  XC integration            ....      31.072 sec  ( 38.5% of F)
    Basis function eval.    ....       4.853 sec  ( 15.6% of XC)
    Density eval.           ....       9.489 sec  ( 30.5% of XC)
    XC-Functional eval.     ....       0.358 sec  (  1.2% of XC)
    XC-Potential eval.      ....       7.730 sec  ( 24.9% of XC)
Diagonalization             ....       0.000 sec  (  0.0%)
Density matrix formation    ....       7.188 sec  (  5.4%)
Total Energy calculation    ....       2.341 sec  (  1.8%)
Population analysis         ....       0.497 sec  (  0.4%)
Orbital Transformation      ....       6.269 sec  (  4.7%)
Orbital Orthonormalization  ....       0.000 sec  (  0.0%)
DIIS solution               ....      18.993 sec  ( 14.2%)
SOSCF solution              ....       6.386 sec  (  4.8%)
NR solution                 ....       0.044 sec  (  0.0%)
Finished LeanSCF after 237.8 sec

Maximum memory used throughout the entire LEANSCF-calculation: 71.4 MB

-------------------------   --------------------
FINAL SINGLE POINT ENERGY     -6124.816581640664
-------------------------   --------------------



           ************************************************************
           *        Program running with 16 parallel MPI-processes    *
           *              working on a common directory               *
           ************************************************************

------------------------------------------------------------------------------
                              ORCA PROPERTY CALCULATIONS
------------------------------------------------------------------------------

GBWName                                 ... CU2_BP_ZORA.gbw
Number of atoms                         ...     66
Number of basis functions               ...    780
Max core memory                         ...   1000 MB

Electric properties:
Dipole moment                           ... YES
Quadrupole moment                       ...  NO
Static polarizability (Dipole/Dipole)   ...  NO
Static polarizability (Dipole/Quad.)    ...  NO
Static polarizability (Quad./Quad.)     ...  NO
Static polarizability (Velocity)        ...  NO
Static hyperpolarizability              ...  NO

Atomic electric properties:
Dipole moment                           ...  NO
Quadrupole moment                       ...  NO
Static polarizability                   ...  NO

Choice of electric origin               ... Center of mass
Position of electric origin             ...     0.000000     0.000000     0.000000

General magnetic properties:
Magnetizability                         ...  NO

EPR properties:
g-Tensor (aka g-matrix)                 ...  NO
Zero-Field splitting spin-orbit         ...  NO
Zero-field splitting spin-spin          ...  NO
Hyperfine couplings                     ...  NO (   0 nuclei)
Quadrupole couplings                    ...  NO (   0 nuclei)
Contact density                         ...  NO (   0 nuclei)

NMR properties:
Chemical shifts                         ...  NO (   0 nuclei)
Spin-rotation constants                 ...  NO (   0 nuclei)
Spin-spin couplings                     ...  NO (   0 nuclei,    0 pairs)

Choice of magnetic origin               ... GIAO
Position of magnetic origin             ...     0.000000     0.000000     0.000000

Properties with geometric perturbations:
SCF Hessian                             ...  NO
IR spectrum                             ...  NO
VCD spectrum                            ...  NO
X-ray spectroscopy properties:
SCF XES/XAS/RIXS spectra                ...  NO

SCF SOC stabilization energy            ...  NO
Diagonal Born-Oppenheimer correction    ...  NO
Note: picture-change corrections are only included
      for the properties annotated with "YES(ZORA)"!


-------------
DIPOLE MOMENT
-------------

Method             : SCF
Type of density    : Electron Density
Multiplicity       :   1
Irrep              :   0
Energy             : -6124.8165816406635713 Eh
Basis              : AO
                                X                 Y                 Z
Electronic contribution:     -0.000001000       0.000000533      -0.000000280
Nuclear contribution   :      0.000000000      -0.000000000       0.000000000
                        -----------------------------------------
Total Dipole Moment    :     -0.000001000       0.000000533      -0.000000280
                        -----------------------------------------
Magnitude (a.u.)       :      0.000001167
Magnitude (Debye)      :      0.000002966



--------------------
Rotational spectrum 
--------------------
 
Rotational constants in cm-1:             0.002948             0.001717             0.001580 
Rotational constants in MHz :            88.364196            51.471294            47.376530 

Dipole components along the rotational axes: 
x,y,z [a.u.] :    -0.000001     0.000000    -0.000000 
x,y,z [Debye]:    -0.000003     0.000001    -0.000000 

 

Dipole moment calculation done in   0.0 sec 

Maximum memory used throughout the entire PROP-calculation: 57.1 MB

--------------------------------
SUGGESTED CITATIONS FOR THIS RUN
--------------------------------

Below you find a list of papers that are relevant to this ORCA run
We neither can nor want to force you to cite these papers, but we appreciate if you do
You receive ORCA, which is the product of decades of hard work by many enthusiastic individuals, for free
The only thing we kindly ask in return is that you cite our papers,
We deeply appreciate it, if you show your appreciation for ORCA by not just citing the generic ORCA reference.

Please note that relegating all ORCA citations to the supporting information does *not* help us.
SI sections are not indexed - citations you put there will not count into any citation statistics
But we need these citations in order to attract the funding resources that allow us to do what we are doing

Therefore, if you are a happy ORCA user, please consider citing a few of the papers listed below in the main body of your paper

In addition to the list printed below, the program has created the file CU2_BP_ZORA.bibtex that contains the list in bibtex format
You can import this file easily into all common literature databanks and citation aid programs


List of essential papers. We consider these as the minimum necessary citations

  1. Neese, F.
     Software update: the ORCA program system, version 6.0
     WIRES Comput. Molec. Sci. 2025 15(1), e70019
     doi.org/10.1002/wcms.7019

List of papers to cite with high priority. The work reported in these papers was absolutely
necessary for this run to complete.
Our perspective: the developers of density functionals and basis sets usually get cited in chemistry papers
Good! But without the algorithms to do something with them, the functionals or basis sets would not do anything.
Hence, in our opinion, the algorithm design and method developments papers are equally worthy of getting cited

  1. Neese, F.
     An improvement of the resolution of the identity approximation for the formation of the Coulomb matrix
     J. Comp. Chem. 2003 24(14), 1740-1747
     doi.org/10.1002/jcc.10318
  2. Neese, F.
     Definition of corresponding orbitals and the diradical character in broken symmetry DFT calculations on spin coupled systems
     J. Phys. Chem. Solids 2004 65(4), 781-785
     doi.org/10.1016/j.jpcs.2003.11.015
  3. Helmich-Paris, B.
     A trust-region augmented Hessian implementation for restricted and unrestricted Hartree–Fock and Kohn–Sham methods
     J. Chem. Phys. 2021 154 , 164104
     doi.org/10.1063/5.0040798
  4. Neese, F.
     The SHARK Integral Generation and Digestion System
     J. Comp. Chem. 2022 44(3), 381
     doi.org/10.1002/jcc.26942

List of suggested additional citations. These are papers that are important in the 'surrounding' of 
of this run, or papers that preceded the highly important papers. If you like your results we are grateful for a citation.

  1. Neese, F.
     The ORCA program system
     WIRES Comput. Molec. Sci. 2012 2(1), 73-78
     doi.org/10.1002/wcms.81
  2. Neese, F.
     Software update: the ORCA program system, version 4.0
     WIRES Comput. Molec. Sci. 2018 8(1), 1-6
     doi.org/10.1002/wcms.1327
  3. Neese, F.; Wennmohs, F.; Becker, U.; Riplinger, C.
     The ORCA quantum chemistry program package
     J. Chem. Phys. 2020 152(22), 224108
     doi.org/10.1063/5.0004608
  4. Neese, F.
     Software update: The ORCA program system—Version 5.0
     WIRES Comput. Molec. Sci. 2022 12(1), e1606
     doi.org/10.1002/wcms.1606

List of optional additional citations

  1. Neese, F.
     Approximate second-order SCF convergence for spin unrestricted wavefunctions
     Chem. Phys. Lett. 2000 325(1-3), 93-98
     doi.org/10.1016/s0009-2614(00)00662-x

Timings for individual modules:

Sum of individual times          ...      243.104 sec (=   4.052 min)
Startup calculation              ...        1.888 sec (=   0.031 min)   0.8 %
Relativistic integrals           ...        1.859 sec (=   0.031 min)   0.8 %
SCF iterations                   ...      239.082 sec (=   3.985 min)  98.3 %
Property calculations            ...        0.275 sec (=   0.005 min)   0.1 %
                             ****ORCA TERMINATED NORMALLY****
TOTAL RUN TIME: 0 days 0 hours 4 minutes 3 seconds 408 msec
