
                                 *****************
                                 * O   R   C   A *
                                 *****************

                                            #,                                       
                                            ###                                      
                                            ####                                     
                                            #####                                    
                                            ######                                   
                                           ########,                                 
                                     ,,################,,,,,                         
                               ,,#################################,,                 
                          ,,##########################################,,             
                       ,#########################################, ''#####,          
                    ,#############################################,,   '####,        
                  ,##################################################,,,,####,       
                ,###########''''           ''''###############################       
              ,#####''   ,,,,##########,,,,          '''####'''          '####       
            ,##' ,,,,###########################,,,                        '##       
           ' ,,###''''                  '''############,,,                           
         ,,##''                                '''############,,,,        ,,,,,,###''
      ,#''                                            '''#######################'''  
     '                                                          ''''####''''         
             ,#######,   #######,   ,#######,      ##                                
            ,#'     '#,  ##    ##  ,#'     '#,    #''#        ,####,    ,#,          
            ##       ##  ##   ,#'  ##            #'  '#       #'       ,# #          
            ##       ##  #######   ##           ,######,      #####,      #          
            '#,     ,#'  ##    ##  '#,     ,#' ,#      #,     #,   #      #          
             '#######'   ##     ##  '#######'  #'      '#     '####' #    #          



                #########################################################
                #                        -***-                          #
                #          Department of theory and spectroscopy        #
                #                                                       #
                #                      Frank Neese                      #
                #                                                       #
                #     Directorship, Architecture, Infrastructure        #
                #                    SHARK, DRIVERS                     #
                #        Core code/Algorithms in most modules           #
                #                                                       #
                #        Max Planck Institute fuer Kohlenforschung      #
                #                Kaiser Wilhelm Platz 1                 #
                #                 D-45470 Muelheim/Ruhr                 #
                #                      Germany                          #
                #                                                       #
                #                  All rights reserved                  #
                #                        -***-                          #
                #########################################################


                         Program Version 6.1.0  -  RELEASE   -


 With contributions from (in alphabetic order):
[Max-Planck-Institut fuer Kohlenforschung]                               
  Daniel Aravena         : Magnetic Suceptibility                        
  Michael Atanasov       : Ab Initio Ligand Field Theory (pilot matlab implementation)
  Alexander A. Auer      : GIAO ZORA, VPT2 properties, NMR spectrum      
  Ute Becker             : All parallelization in ORCA, NUMFREQ, NUMCALC 
  Giovanni Bistoni       : ED, misc. LED, open-shell LED, HFLD           
  Dmytro Bykov           : pre 5.0 version of the SCF Hessian            
  Marcos Casanova-Páez   : Triplet and SCS-CIS(D). UHF-(DLPNO)-IP/EA/STEOM-CCSD. UHF-CVS-IP/STEOM-CCSD   
  Vijay G. Chilkuri      : MRCI spin determinant printing, contributions to CSF-ICE 
  Pauline Colinet        : FMM embedding                                 
  Dipayan Datta          : RHF DLPNO-CCSD density                        
  Achintya Kumar Dutta   : EOM-CC, STEOM-CC                              
  Nicolas Foglia         : Exact transition moments, OPA infrastructure, MCD improvements    
  Dmitry Ganyushin       : Spin-Orbit,Spin-Spin,Magnetic field MRCI      
  Miquel Garcia-Rates    : C-PCM and meta-GGA Hessian, CCSD/C-PCM, Gaussian charge scheme 
  Tiago L. C. Gouveia    : GS-ROHF, GS-ROCIS                             
  Yang Guo               : DLPNO-NEVPT2, F12-NEVPT2, CIM, IAO-localization        
  Andreas Hansen         : Spin unrestricted coupled pair/coupled cluster methods 
  Ingolf Harden          : AUTO-CI MPn and infrastructure                
  Benjamin Helmich-Paris : MC-RPA, TRAH-(SCF,CASSCF), AVAS, COSX integrals, SCF dyn. polar., MC-PDFT, srDFT 
  Lee Huntington         : MR-EOM, pCC                                   
  Robert Izsak           : Overlap fitted RIJCOSX, COSX-SCS-MP3, EOM     
  Riya Kayal             : Wick's Theorem for AUTO-CI, AUTO-CI UHF-CCSDT 
  Emily Kempfer          : AUTO-CI RHF CISDT and CCSDT, approximate NEVPT4
  Christian Kollmar      : KDIIS, OOCD, Brueckner-CCSD(T), CCSD density, CASPT2, CASPT2-K, improved NEVPT2 
  Axel Koslowski         : Symmetry handling                             
  Simone Kossmann        : meta-GGA functionals, TD-DFT gradient, OOMP2, (MP2 Hessian; deprecated post 5.0) 
  Lucas Lang             : DCDCAS, Hyperfine gauge corrections, ICE-SOC+SSC
  Marvin Lechner         : AUTO-CI (C++ implementation), FIC-MRCC        
  Spencer Leger          : CASSCF response                               
  Dagmar Lenk            : GEPOL surface, SMD, ORCA-2-JSON               
  Dimitrios Liakos       : Extrapolation schemes; Compound Job, Property file
  Dimitrios Manganas     : Further ROCIS development; embedding schemes. LFT, Crystal Embedding 
  Dimitrios Pantazis     : SARC Basis sets                               
  Anastasios Papadopoulos: AUTO-CI, single reference methods and gradients 
  Taras Petrenko         : pre 6.0 DFT Hessian and TD-DFT gradient,  ECA, NRVS 
  Petra Pikulova         : Analytic Raman intensities                    
  Peter Pinski           : DLPNO-MP2, DLPNO-MP2 Gradient                 
  Shashank Vittal Rao    : ES-AILFT, MagRelax                            
  Christoph Reimann      : Effective Core Potentials                     
  Marius Retegan         : Local ZFS, SOC                                
  Christoph Riplinger    : Optimizer, TS searches, QM/MM, DLPNO-CCSD(T), (RO)-DLPNO pert. Triples 
  Michael Roemelt        : Original ROCIS implementation, recursive CI coupling coefficients
  Masaaki Saitow         : Open-shell DLPNO-CCSD energy and density      
  Barbara Sandhoefer     : DKH picture change effects                    
  Yorick L. A. Schmerwitz: GMF and freeze-and-release deltaSCF, NEB S-IDPP initial path                    
  Kantharuban Sivalingam : CASSCF convergence/infrastructure, NEVPT2, NEVPT3, NEVPT4(SD), FIC-MRCI and CEPA variants
  Bernardo de Souza      : ESD, SOC TD-DFT                               
  Georgi L. Stoychev     : AutoAux, RI-MP2 NMR, DLPNO-MP2 response, X2C  
  Van Anh Tran           : RI-MP2 g-tensors                              
  Willem Van den Heuvel  : Paramagnetic NMR                              
  Zikuan Wang            : NOTCH, Electric field optimization            
  Frank Wennmohs         : Technical directorship and infrastructure     
  Hang Xu                : AUTO-CI-Response properties                   
                                                                         
[FACCTs GmbH]                                                            
  Markus Bursch, Nicolas Foglia, Miquel Garcia-Rates, Ingolf Harden, Hagen Neugebauer, Anastasios Papadopoulos, 
  Christoph Riplinger, Bernardo de Souza, Georgi L. Stoychev                                                    
                                                                 
  APM, various basis sets, CI-OPT, improved COSX, DLPNO-Multilevel,           
  DOCKER, DRACO, updates on ESD, Fragmentator, GOAT, IRC, LR-CPCM, L-BFGS, MBIS, meta-GGA TD-DFT gradient, ML-optimized integration grids, 
  MM, NACMEs, nearIR, NEB, NEB-TS, NL-DFT gradient (VV10), 2- and 3-layer-ONIOM, interface openCOSMO-RS, QMMM,   
  Crystal-QMMM, RESP, rigid body optimization, SF, symmetry and pop. for TD-DFT, various functionals, SOLVATOR                                   
                                                                         
[Other institutions]                                                     
  V. Asgeirsson          : NEB                                           
  Christoph Bannwarth    : sTDA-DFT, sTD-DFT, PBEh-3c, B97-3c, D3        
  Giovanni Bistoni       : ETS/NOCV, ADLD/ADEX, COVALED                  
  Martin Brehm           : Molecular dynamics                            
  Ronald Cardenas        : ETS/NOCV                                      
  Martina Colucci        : COVALED                                       
  Sebastian Ehlert       : rSCAN, r2SCAN, r2SCAN-3c, D4, dhf basis sets  
  Marvin Friede          : D4 for Fr, Ra, Ac-Lr                          
  Lars Goerigk           : TD-DFT with DH, B97 family of functionals     
  Stefan Grimme          : VdW corrections, initial TS optimization, DFT functionals, gCP, sTDA/sTD-DF 
  Waldemar Hujo          : DFT-NL                                        
  H. Jonsson             : NEB                                           
  Holger Kruse           : gCP                                           
  Marcel Mueller         : wB97X-3c, vDZP basis set                      
  Hagen Neugebauer       : wr2SCAN, Native XTB                           
  Gianluca Regni         : ADLD/ADEX                                     
  Tobias Risthaus        : pre 6.0 range-separated hybrid DFT and stability analysis
  Lukas Wittmann         : regularized MP2, r2SCAN double-hybrids, wr2SCAN        
                                                                         
We gratefully acknowledge several colleagues who have allowed us to      
interface, adapt or use parts of their codes:                            
  Ed Valeev, F. Pavosevic, A. Kumar             : LibInt (2-el integral package), F12 methods 
  Garnet Chan, S. Sharma, J. Yang, R. Olivares  : DMRG                   
  Ulf Ekstrom                                   : XCFun DFT Library      
  Mihaly Kallay                                 : mrcc  (arbitrary order and MRCC methods)
  Frank Weinhold                                : gennbo (NPA and NBO analysis)           
  Simon Mueller                                 : openCOSMO-RS                            
  Christopher J. Cramer and Donald G. Truhlar   : smd solvation model                     
  S Lehtola, MJT Oliveira, MAL Marques          : LibXC Library                           
  Liviu Ungur et al                             : ANISO software                          


 Your calculation uses the libint2 library for the computation of 2-el integrals
 For citations please refer to: http://libint.valeyev.net

 Your ORCA version has been built with support for libXC version: 7.0.0
 For citations please refer to: https://libxc.gitlab.io

 This ORCA versions uses:
   CBLAS   interface :  Fast vector & matrix operations
   LAPACKE interface :  Fast linear algebra routines
   Shared memory     :  Shared parallel matrices


  ***********************************
  * Starting time: Fri Sep 12 18:24:24 2025
  * Host name:     DESKTOP-SI45VP7
  * Process ID:    13368
  * Working dir.:  C:\orca_jobs\ex3
  ***********************************

NOTE: MaxCore=1000 MB was set to SCF,MP2,MDCI,CIPSI,MRCI,RASCI and CIS
      => If you want to overwrite this, your respective input block should be placed after the MaxCore statement


***************************************
The coordinates will be read from file: Cu2_for_5_BSDFT.xyz
***************************************


================================================================================

----- Orbital basis set information -----
Your calculation utilizes the basis: def2-SVP
   F. Weigend and R. Ahlrichs, Phys. Chem. Chem. Phys. 7, 3297 (2005).

----- AuxJ basis set information -----
Your calculation utilizes the auxiliary basis: def2/J
   H-Rn: F. Weigend, Phys. Chem. Chem. Phys. 8, 1057 (2006).
   Fr-Lr: K. Eichkorn, F. Weigend, O. Treutler, R. Ahlrichs; Theor. Chem. Acc. 97, 119 (1997).

================================================================================
                                        WARNINGS
                       Please study these warnings very carefully!
================================================================================



WARNING: Found flag for RIJCOSX approximation but no HF exchange needed!
  ===> : RIJCOSX  will be disabled and Split-RI-J is turned on

WARNING: Broken symmetry calculations need fully converged wavefunctions
  ===> : Setting SCFConvForced true
         You can overwrite this default with %scf ConvForced false 


================================================================================
                                       INPUT FILE
================================================================================
NAME = CU2_BP.INP
|  1> ! UKS BP86 def2-SVP def2/J TightSCF RIJCOSX
|  2> 
|  3> %pal
|  4>   nprocs 16
|  5> end
|  6> 
|  7> %maxcore 1000
|  8> 
|  9> %scf
| 10> FlipSpin 0       
| 11> FinalMs 0         
| 12> MaxIter 300
| 13> end
| 14> 
| 15> * xyzfile -2 3 Cu2_for_5_BSDFT.xyz
| 16> 
| 17> 
| 18>                          ****END OF INPUT****
================================================================================

                       ****************************
                       * Single Point Calculation *
                       ****************************

---------------------------------
CARTESIAN COORDINATES (ANGSTROEM)
---------------------------------
  Cu     0.141181   -1.336905    0.234754
  O      1.853907   -0.798371    1.051912
  O     -1.617100   -1.409633   -0.682009
  O      0.979405   -1.292850   -1.557639
  O     -0.742003   -0.918471    1.949698
  O      0.308678   -3.400068    0.455636
  O      2.751666   -3.977012    1.815800
  C      2.185509    0.398030    1.131865
  C      3.460615    0.653748    1.941991
  C      1.067687   -0.260173   -2.235795
  C      1.618931   -0.442209   -3.659536
  C      0.382102   -4.233983    1.604840
  H      0.517910   -5.173228    1.322596
  H     -0.471544   -4.183907    2.102861
  C      1.515268   -3.812630    2.506479
  H      1.400268   -2.864765    2.769457
  H      1.513584   -4.364609    3.328165
  C      3.910544   -3.547910    2.558497
  H      3.726181   -2.667977    2.997756
  C      4.270062   -4.575455    3.600776
  H      3.535049   -4.659721    4.244253
  H      5.083192   -4.295457    4.069898
  H      4.424234   -5.440441    3.167295
  C      5.035233   -3.395380    1.539336
  H      4.778069   -2.728796    0.866960
  H      5.197143   -4.256218    1.100076
  H      5.851067   -3.101363    1.994972
  F      3.309933    0.210081    3.176928
  F      3.764557    1.920071    2.010385
  F      4.487126   -0.009151    1.460347
  F      0.626331   -0.649220   -4.492782
  F      2.297897    0.595009   -4.078567
  F      2.422470   -1.493916   -3.738526
  Cu    -0.141181    1.336905   -0.234754
  O     -1.853907    0.798371   -1.051912
  O      1.617100    1.409633    0.682009
  O     -0.979405    1.292850    1.557639
  O      0.742003    0.918471   -1.949698
  O     -0.308678    3.400068   -0.455636
  O     -2.751666    3.977012   -1.815800
  C     -2.185509   -0.398030   -1.131865
  C     -3.460615   -0.653748   -1.941991
  C     -1.067687    0.260173    2.235795
  C     -1.618931    0.442209    3.659536
  C     -0.382102    4.233983   -1.604840
  H     -0.517910    5.173228   -1.322596
  H      0.471544    4.183907   -2.102861
  C     -1.515268    3.812630   -2.506479
  H     -1.400268    2.864765   -2.769457
  H     -1.513584    4.364609   -3.328165
  C     -3.910544    3.547910   -2.558497
  H     -3.726181    2.667977   -2.997756
  C     -4.270062    4.575455   -3.600776
  H     -3.535049    4.659721   -4.244253
  H     -5.083192    4.295457   -4.069898
  H     -4.424234    5.440441   -3.167295
  C     -5.035233    3.395380   -1.539336
  H     -4.778069    2.728796   -0.866960
  H     -5.197143    4.256218   -1.100076
  H     -5.851067    3.101363   -1.994972
  F     -3.309933   -0.210081   -3.176928
  F     -3.764557   -1.920071   -2.010385
  F     -4.487126    0.009151   -1.460347
  F     -0.626331    0.649220    4.492782
  F     -2.297897   -0.595009    4.078567
  F     -2.422470    1.493916    3.738526

----------------------------
CARTESIAN COORDINATES (A.U.)
----------------------------
  NO LB      ZA    FRAG     MASS         X           Y           Z
   0 Cu   29.0000    0    63.550    0.266793   -2.526384    0.443621
   1 O     8.0000    0    15.999    3.503377   -1.508703    1.987826
   2 O     8.0000    0    15.999   -3.055876   -2.663820   -1.288810
   3 O     8.0000    0    15.999    1.850807   -2.443132   -2.943511
   4 O     8.0000    0    15.999   -1.402182   -1.735659    3.684395
   5 O     8.0000    0    15.999    0.583317   -6.425197    0.861027
   6 O     8.0000    0    15.999    5.199895   -7.515464    3.431365
   7 C     6.0000    0    12.011    4.130013    0.752168    2.138915
   8 C     6.0000    0    12.011    6.539615    1.235405    3.669831
   9 C     6.0000    0    12.011    2.017636   -0.491656   -4.225040
  10 C     6.0000    0    12.011    3.059336   -0.835654   -6.915521
  11 C     6.0000    0    12.011    0.722068   -8.001068    3.032708
  12 H     1.0000    0     1.008    0.978708   -9.775984    2.499344
  13 H     1.0000    0     1.008   -0.891089   -7.906438    3.973831
  14 C     6.0000    0    12.011    2.863442   -7.204827    4.736559
  15 H     1.0000    0     1.008    2.646123   -5.413621    5.233515
  16 H     1.0000    0     1.008    2.860259   -8.247916    6.289320
  17 C     6.0000    0    12.011    7.389857   -6.704578    4.834859
  18 H     1.0000    0     1.008    7.041462   -5.041746    5.664938
  19 C     6.0000    0    12.011    8.069248   -8.646357    6.804481
  20 H     1.0000    0     1.008    6.680274   -8.805597    8.020476
  21 H     1.0000    0     1.008    9.605841   -8.117237    7.690993
  22 H     1.0000    0     1.008    8.360591  -10.280944    5.985320
  23 C     6.0000    0    12.011    9.515211   -6.416338    2.908923
  24 H     1.0000    0     1.008    9.029242   -5.156677    1.638317
  25 H     1.0000    0     1.008    9.821177   -8.043086    2.078842
  26 H     1.0000    0     1.008   11.056914   -5.860727    3.769951
  27 F     9.0000    0    18.998    6.254867    0.396996    6.003524
  28 F     9.0000    0    18.998    7.113982    3.628408    3.799077
  29 F     9.0000    0    18.998    8.479439   -0.017293    2.759656
  30 F     9.0000    0    18.998    1.183594   -1.226848   -8.490128
  31 F     9.0000    0    18.998    4.342396    1.124404   -7.707375
  32 F     9.0000    0    18.998    4.577805   -2.823092   -7.064790
  33 Cu   29.0000    0    63.550   -0.266793    2.526384   -0.443621
  34 O     8.0000    0    15.999   -3.503377    1.508703   -1.987826
  35 O     8.0000    0    15.999    3.055876    2.663820    1.288810
  36 O     8.0000    0    15.999   -1.850807    2.443132    2.943511
  37 O     8.0000    0    15.999    1.402182    1.735659   -3.684395
  38 O     8.0000    0    15.999   -0.583317    6.425197   -0.861027
  39 O     8.0000    0    15.999   -5.199895    7.515464   -3.431365
  40 C     6.0000    0    12.011   -4.130013   -0.752168   -2.138915
  41 C     6.0000    0    12.011   -6.539615   -1.235405   -3.669831
  42 C     6.0000    0    12.011   -2.017636    0.491656    4.225040
  43 C     6.0000    0    12.011   -3.059336    0.835654    6.915521
  44 C     6.0000    0    12.011   -0.722068    8.001068   -3.032708
  45 H     1.0000    0     1.008   -0.978708    9.775984   -2.499344
  46 H     1.0000    0     1.008    0.891089    7.906438   -3.973831
  47 C     6.0000    0    12.011   -2.863442    7.204827   -4.736559
  48 H     1.0000    0     1.008   -2.646123    5.413621   -5.233515
  49 H     1.0000    0     1.008   -2.860259    8.247916   -6.289320
  50 C     6.0000    0    12.011   -7.389857    6.704578   -4.834859
  51 H     1.0000    0     1.008   -7.041462    5.041746   -5.664938
  52 C     6.0000    0    12.011   -8.069248    8.646357   -6.804481
  53 H     1.0000    0     1.008   -6.680274    8.805597   -8.020476
  54 H     1.0000    0     1.008   -9.605841    8.117237   -7.690993
  55 H     1.0000    0     1.008   -8.360591   10.280944   -5.985320
  56 C     6.0000    0    12.011   -9.515211    6.416338   -2.908923
  57 H     1.0000    0     1.008   -9.029242    5.156677   -1.638317
  58 H     1.0000    0     1.008   -9.821177    8.043086   -2.078842
  59 H     1.0000    0     1.008  -11.056914    5.860727   -3.769951
  60 F     9.0000    0    18.998   -6.254867   -0.396996   -6.003524
  61 F     9.0000    0    18.998   -7.113982   -3.628408   -3.799077
  62 F     9.0000    0    18.998   -8.479439    0.017293   -2.759656
  63 F     9.0000    0    18.998   -1.183594    1.226848    8.490128
  64 F     9.0000    0    18.998   -4.342396   -1.124404    7.707375
  65 F     9.0000    0    18.998   -4.577805    2.823092    7.064790

--------------------------------
INTERNAL COORDINATES (ANGSTROEM)
--------------------------------
 Cu     0   0   0     0.000000000000     0.00000000     0.00000000
 O      1   0   0     1.972611572813     0.00000000     0.00000000
 O      1   2   0     1.984262037916   166.11237228     0.00000000
 O      1   2   3     1.979200086815    90.07770835    80.16607040
 O      1   2   4     1.973862688575    88.32122039   193.59541285
 O      1   2   5     2.081702588628    99.01879534   261.30035288
 O      6   1   2     2.855013284413   108.64365451     1.98702110
 C      2   1   5     1.244077056060   121.37211734   278.43485852
 C      8   2   1     1.532185087591   114.60147822   172.95644703
 C      4   1   2     1.238592369664   122.99656006   274.33741762
 C     10   4   1     1.537545279955   115.71142652   185.99924906
 C      6   1   2     1.421785899711   132.16144548    63.66538320
 H     12   6   1     0.990094267444   109.45533912   183.77243415
 H     12   6   1     0.989567590179   109.42397712    65.54653834
 C      7   6   1     1.425741539470    57.68632984    92.73735306
 H     15   7   6     0.990368863964   109.85735887   268.89618308
 H     15   7   6     0.989874504618   109.83475393   149.94049878
 C      7   6   1     1.441778616535   150.81541993    10.19866134
 H     18   7   6     1.000609948651   109.86249063    22.77444026
 C     18   7   6     1.507132188360   110.18587741   143.96534670
 H     20  18   7     0.980513905283   109.48895605   297.25334384
 H     20  18   7     0.979619685280   109.53056767   177.26738103
 H     20  18   7     0.979732393637   109.48093787    57.20437033
 C     18   7   6     1.525411384362   106.15425969   263.93528538
 H     24  18   7     0.981099912001   109.42427002    59.91890263
 H     24  18   7     0.979901147027   109.48019166   299.96922646
 H     24  18   7     0.979609757169   109.46865333   179.87388448
 F      9   8   2     1.320838697942   110.08123284   300.72390240
 F      9   8   2     1.304082980078   112.56672208   180.58324828
 F      9   8   2     1.313446177069   111.85662648    57.32386174
 F     11  10   4     1.312405124433   109.59829306    91.12623327
 F     11  10   4     1.308588165788   112.87322773   211.93143201
 F     11  10   4     1.325896662063   111.49084465   332.62348286
 Cu     1   2   8     2.729363657926    83.89418204     2.57984780
 O     34   1   2     1.972611572813    83.89418204   180.00000000
 O      8   2   1     1.244507871259   129.54860593   355.01700499
 O     34   1   2     1.979200086815    82.31212243   270.90625617
 O     10   4   1     1.255835673964   129.73854588     3.95456838
 O     34   1   2     2.081702588628   175.94593890   316.10852543
 O     39  34  35     2.855013284413   108.64365451   358.01297890
 C     35  34   1     1.244077056060   121.37211734   357.42015220
 C     41  35  34     1.532185087591   114.60147822   187.04355297
 C     37  34   1     1.238592369664   122.99656006     1.83455019
 C     43  37  34     1.537545279955   115.71142652   174.00075094
 C     39  34  35     1.421785899711   132.16144548   296.33461680
 H     45  39  34     0.990094267444   109.45533912   176.22756585
 H     45  39  34     0.989567590179   109.42397712   294.45346166
 C     40  39  34     1.425741539470    57.68632984   267.26264694
 H     48  40  39     0.990368863964   109.85735887    91.10381692
 H     48  40  39     0.989874504618   109.83475393   210.05950122
 C     40  39  34     1.441778616535   150.81541993   349.80133866
 H     51  40  39     1.000609948651   109.86249063   337.22555974
 C     51  40  39     1.507132188360   110.18587741   216.03465330
 H     53  51  40     0.980513905283   109.48895605    62.74665616
 H     53  51  40     0.979619685280   109.53056767   182.73261897
 H     53  51  40     0.979732393637   109.48093787   302.79562967
 C     51  40  39     1.525411384362   106.15425969    96.06471462
 H     57  51  40     0.981099912001   109.42427002   300.08109737
 H     57  51  40     0.979901147027   109.48019166    60.03077354
 H     57  51  40     0.979609757169   109.46865333   180.12611552
 F     42  41  35     1.320838697942   110.08123284    59.27609760
 F     42  41  35     1.304082980078   112.56672208   179.41675172
 F     42  41  35     1.313446177069   111.85662648   302.67613826
 F     44  43  37     1.312405124433   109.59829306   268.87376673
 F     44  43  37     1.308588165788   112.87322773   148.06856799
 F     44  43  37     1.325896662063   111.49084465    27.37651714

---------------------------
INTERNAL COORDINATES (A.U.)
---------------------------
 Cu     0   0   0     0.000000000000     0.00000000     0.00000000
 O      1   0   0     3.727695641220     0.00000000     0.00000000
 O      1   2   0     3.749711829597   166.11237228     0.00000000
 O      1   2   3     3.740146128314    90.07770835    80.16607040
 O      1   2   4     3.730059907372    88.32122039   193.59541285
 O      1   2   5     3.933847784783    99.01879534   261.30035288
 O      6   1   2     5.395193216248   108.64365451     1.98702110
 C      2   1   5     2.350964925448   121.37211734   278.43485852
 C      8   2   1     2.895410202025   114.60147822   172.95644703
 C      4   1   2     2.340600370229   122.99656006   274.33741762
 C     10   4   1     2.905539497619   115.71142652   185.99924906
 C      6   1   2     2.686785971525   132.16144548    63.66538320
 H     12   6   1     1.871007012234   109.45533912   183.77243415
 H     12   6   1     1.870011736443   109.42397712    65.54653834
 C      7   6   1     2.694261047353    57.68632984    92.73735306
 H     15   7   6     1.871525924454   109.85735887   268.89618308
 H     15   7   6     1.870591720679   109.83475393   149.94049878
 C      7   6   1     2.724566730995   150.81541993    10.19866134
 H     18   7   6     1.890878769827   109.86249063    22.77444026
 C     18   7   6     2.848067083617   110.18587741   143.96534670
 H     20  18   7     1.852902751487   109.48895605   297.25334384
 H     20  18   7     1.851212920577   109.53056767   177.26738103
 H     20  18   7     1.851425908504   109.48093787    57.20437033
 C     18   7   6     2.882609758010   106.15425969   263.93528538
 H     24  18   7     1.854010143696   109.42427002    59.91890263
 H     24  18   7     1.851744806196   109.48019166   299.96922646
 H     24  18   7     1.851194159167   109.46865333   179.87388448
 F      9   8   2     2.496023406196   110.08123284   300.72390240
 F      9   8   2     2.464359688255   112.56672208   180.58324828
 F      9   8   2     2.482053566307   111.85662648    57.32386174
 F     11  10   4     2.480086261932   109.59829306    91.12623327
 F     11  10   4     2.472873255430   112.87322773   211.93143201
 F     11  10   4     2.505581573180   111.49084465   332.62348286
 Cu     1   2   8     5.157749833358    83.89418204     2.57984780
 O     34   1   2     3.727695641220    83.89418204   180.00000000
 O      8   2   1     2.351779048189   129.54860593   355.01700499
 O     34   1   2     3.740146128314    82.31212243   270.90625617
 O     10   4   1     2.373185493001   129.73854588     3.95456838
 O     34   1   2     3.933847784783   175.94593890   316.10852543
 O     39  34  35     5.395193216248   108.64365451   358.01297890
 C     35  34   1     2.350964925448   121.37211734   357.42015220
 C     41  35  34     2.895410202025   114.60147822   187.04355297
 C     37  34   1     2.340600370229   122.99656006     1.83455019
 C     43  37  34     2.905539497619   115.71142652   174.00075094
 C     39  34  35     2.686785971525   132.16144548   296.33461680
 H     45  39  34     1.871007012234   109.45533912   176.22756585
 H     45  39  34     1.870011736443   109.42397712   294.45346166
 C     40  39  34     2.694261047353    57.68632984   267.26264694
 H     48  40  39     1.871525924454   109.85735887    91.10381692
 H     48  40  39     1.870591720679   109.83475393   210.05950122
 C     40  39  34     2.724566730995   150.81541993   349.80133866
 H     51  40  39     1.890878769827   109.86249063   337.22555974
 C     51  40  39     2.848067083617   110.18587741   216.03465330
 H     53  51  40     1.852902751487   109.48895605    62.74665616
 H     53  51  40     1.851212920577   109.53056767   182.73261897
 H     53  51  40     1.851425908504   109.48093787   302.79562967
 C     51  40  39     2.882609758010   106.15425969    96.06471462
 H     57  51  40     1.854010143696   109.42427002   300.08109737
 H     57  51  40     1.851744806196   109.48019166    60.03077354
 H     57  51  40     1.851194159167   109.46865333   180.12611552
 F     42  41  35     2.496023406196   110.08123284    59.27609760
 F     42  41  35     2.464359688255   112.56672208   179.41675172
 F     42  41  35     2.482053566307   111.85662648   302.67613826
 F     44  43  37     2.480086261932   109.59829306   268.87376673
 F     44  43  37     2.472873255430   112.87322773   148.06856799
 F     44  43  37     2.505581573180   111.49084465    27.37651714

---------------------
BASIS SET INFORMATION
---------------------
There are 5 groups of distinct atoms

 Group   1 Type Cu  : 14s9p5d1f contracted to 5s3p2d1f pattern {63311/531/41/1}
 Group   2 Type O   : 7s4p1d contracted to 3s2p1d pattern {511/31/1}
 Group   3 Type C   : 7s4p1d contracted to 3s2p1d pattern {511/31/1}
 Group   4 Type H   : 4s1p contracted to 2s1p pattern {31/1}
 Group   5 Type F   : 7s4p1d contracted to 3s2p1d pattern {511/31/1}

Atom   0Cu   basis set group =>   1
Atom   1O    basis set group =>   2
Atom   2O    basis set group =>   2
Atom   3O    basis set group =>   2
Atom   4O    basis set group =>   2
Atom   5O    basis set group =>   2
Atom   6O    basis set group =>   2
Atom   7C    basis set group =>   3
Atom   8C    basis set group =>   3
Atom   9C    basis set group =>   3
Atom  10C    basis set group =>   3
Atom  11C    basis set group =>   3
Atom  12H    basis set group =>   4
Atom  13H    basis set group =>   4
Atom  14C    basis set group =>   3
Atom  15H    basis set group =>   4
Atom  16H    basis set group =>   4
Atom  17C    basis set group =>   3
Atom  18H    basis set group =>   4
Atom  19C    basis set group =>   3
Atom  20H    basis set group =>   4
Atom  21H    basis set group =>   4
Atom  22H    basis set group =>   4
Atom  23C    basis set group =>   3
Atom  24H    basis set group =>   4
Atom  25H    basis set group =>   4
Atom  26H    basis set group =>   4
Atom  27F    basis set group =>   5
Atom  28F    basis set group =>   5
Atom  29F    basis set group =>   5
Atom  30F    basis set group =>   5
Atom  31F    basis set group =>   5
Atom  32F    basis set group =>   5
Atom  33Cu   basis set group =>   1
Atom  34O    basis set group =>   2
Atom  35O    basis set group =>   2
Atom  36O    basis set group =>   2
Atom  37O    basis set group =>   2
Atom  38O    basis set group =>   2
Atom  39O    basis set group =>   2
Atom  40C    basis set group =>   3
Atom  41C    basis set group =>   3
Atom  42C    basis set group =>   3
Atom  43C    basis set group =>   3
Atom  44C    basis set group =>   3
Atom  45H    basis set group =>   4
Atom  46H    basis set group =>   4
Atom  47C    basis set group =>   3
Atom  48H    basis set group =>   4
Atom  49H    basis set group =>   4
Atom  50C    basis set group =>   3
Atom  51H    basis set group =>   4
Atom  52C    basis set group =>   3
Atom  53H    basis set group =>   4
Atom  54H    basis set group =>   4
Atom  55H    basis set group =>   4
Atom  56C    basis set group =>   3
Atom  57H    basis set group =>   4
Atom  58H    basis set group =>   4
Atom  59H    basis set group =>   4
Atom  60F    basis set group =>   5
Atom  61F    basis set group =>   5
Atom  62F    basis set group =>   5
Atom  63F    basis set group =>   5
Atom  64F    basis set group =>   5
Atom  65F    basis set group =>   5
---------------------------------
AUXILIARY/J BASIS SET INFORMATION
---------------------------------
There are 5 groups of distinct atoms

 Group   1 Type Cu  : 19s5p5d3f3g contracted to 8s5p4d3f3g pattern {121111111/11111/2111/111/111}
 Group   2 Type O   : 12s5p4d2f1g contracted to 6s4p3d1f1g pattern {711111/2111/211/2/1}
 Group   3 Type C   : 12s5p4d2f1g contracted to 6s4p3d1f1g pattern {711111/2111/211/2/1}
 Group   4 Type H   : 5s2p1d contracted to 3s1p1d pattern {311/2/1}
 Group   5 Type F   : 12s5p4d2f1g contracted to 6s4p3d1f1g pattern {711111/2111/211/2/1}

Atom   0Cu   basis set group =>   1
Atom   1O    basis set group =>   2
Atom   2O    basis set group =>   2
Atom   3O    basis set group =>   2
Atom   4O    basis set group =>   2
Atom   5O    basis set group =>   2
Atom   6O    basis set group =>   2
Atom   7C    basis set group =>   3
Atom   8C    basis set group =>   3
Atom   9C    basis set group =>   3
Atom  10C    basis set group =>   3
Atom  11C    basis set group =>   3
Atom  12H    basis set group =>   4
Atom  13H    basis set group =>   4
Atom  14C    basis set group =>   3
Atom  15H    basis set group =>   4
Atom  16H    basis set group =>   4
Atom  17C    basis set group =>   3
Atom  18H    basis set group =>   4
Atom  19C    basis set group =>   3
Atom  20H    basis set group =>   4
Atom  21H    basis set group =>   4
Atom  22H    basis set group =>   4
Atom  23C    basis set group =>   3
Atom  24H    basis set group =>   4
Atom  25H    basis set group =>   4
Atom  26H    basis set group =>   4
Atom  27F    basis set group =>   5
Atom  28F    basis set group =>   5
Atom  29F    basis set group =>   5
Atom  30F    basis set group =>   5
Atom  31F    basis set group =>   5
Atom  32F    basis set group =>   5
Atom  33Cu   basis set group =>   1
Atom  34O    basis set group =>   2
Atom  35O    basis set group =>   2
Atom  36O    basis set group =>   2
Atom  37O    basis set group =>   2
Atom  38O    basis set group =>   2
Atom  39O    basis set group =>   2
Atom  40C    basis set group =>   3
Atom  41C    basis set group =>   3
Atom  42C    basis set group =>   3
Atom  43C    basis set group =>   3
Atom  44C    basis set group =>   3
Atom  45H    basis set group =>   4
Atom  46H    basis set group =>   4
Atom  47C    basis set group =>   3
Atom  48H    basis set group =>   4
Atom  49H    basis set group =>   4
Atom  50C    basis set group =>   3
Atom  51H    basis set group =>   4
Atom  52C    basis set group =>   3
Atom  53H    basis set group =>   4
Atom  54H    basis set group =>   4
Atom  55H    basis set group =>   4
Atom  56C    basis set group =>   3
Atom  57H    basis set group =>   4
Atom  58H    basis set group =>   4
Atom  59H    basis set group =>   4
Atom  60F    basis set group =>   5
Atom  61F    basis set group =>   5
Atom  62F    basis set group =>   5
Atom  63F    basis set group =>   5
Atom  64F    basis set group =>   5
Atom  65F    basis set group =>   5


           ************************************************************
           *        Program running with 16 parallel MPI-processes    *
           *              working on a common directory               *
           ************************************************************
------------------------------------------------------------------------------
                             ORCA STARTUP CALCULATIONS
                           -- RI-GTO INTEGRALS CHOSEN --
------------------------------------------------------------------------------
------------------------------------------------------------------------------
                   ___                                                        
                  /   \      - P O W E R E D   B Y -                         
                 /     \                                                     
                 |  |  |   _    _      __       _____    __    __             
                 |  |  |  | |  | |    /  \     |  _  \  |  |  /  |          
                  \  \/   | |  | |   /    \    | | | |  |  | /  /          
                 / \  \   | |__| |  /  /\  \   | |_| |  |  |/  /          
                |  |  |   |  __  | /  /__\  \  |    /   |      \           
                |  |  |   | |  | | |   __   |  |    \   |  |\   \          
                \     /   | |  | | |  |  |  |  | |\  \  |  | \   \       
                 \___/    |_|  |_| |__|  |__|  |_| \__\ |__|  \__/        
                                                                              
                      - O R C A' S   B I G   F R I E N D -                    
                                      &                                       
                       - I N T E G R A L  F E E D E R -                       
                                                                              
 v1 FN, 2020, v2 2021, v3 2022-2024                                           
------------------------------------------------------------------------------


----------------------
SHARK INTEGRAL PACKAGE
----------------------

Number of atoms                             ...     66
Number of basis functions                   ...    760
Number of shells                            ...    340
Maximum angular momentum                    ...      3
Integral batch strategy                     ... SHARK/LIBINT Hybrid
RI-J (if used) integral strategy            ... SPLIT-RIJ (Revised 2003 algorithm where possible)
Printlevel                                  ...      1
Contraction scheme used                     ... SEGMENTED contraction
Prescreening option                         ... SCHWARTZ
   Thresh                                   ... 2.500e-11
   Tcut                                     ... 2.500e-12
   Tpresel                                  ... 2.500e-12 
Coulomb Range Separation                    ... NOT USED
Exchange Range Separation                   ... NOT USED
Multipole approximations                    ... NOT USED
Finite Nucleus Model                        ... NOT USED
CABS basis                                  ... NOT available
Auxiliary Coulomb fitting basis             ... AVAILABLE
   # of basis functions in Aux-J            ...   2482
   # of shells in Aux-J                     ...    786
   Maximum angular momentum in Aux-J        ...      4
Auxiliary J/K fitting basis                 ... NOT available
Auxiliary Correlation fitting basis         ... NOT available
Auxiliary 'external' fitting basis          ... NOT available

Checking pre-screening integrals            ... done (  0.0 sec) Dimension = 340
   => SHARK Basis and OBASIS are compatible. Storing Pre-screening
Shell pair information
Shell pair cut-off parameter TPreSel        ...   2.5e-12
Total number of shell pairs                 ...     57970
Shell pairs after pre-screening             ...     29150
Total number of primitive shell pairs       ...    226820
Primitive shell pairs kept                  ...     65563
          la=0 lb=0:   8312 shell pairs
          la=1 lb=0:  10602 shell pairs
          la=1 lb=1:   3487 shell pairs
          la=2 lb=0:   3648 shell pairs
          la=2 lb=1:   2364 shell pairs
          la=2 lb=2:    374 shell pairs
          la=3 lb=0:    190 shell pairs
          la=3 lb=1:    132 shell pairs
          la=3 lb=2:     38 shell pairs
          la=3 lb=3:      3 shell pairs

Checking whether 4 symmetric matrices of dimension 760 fit in memory
:Max Core in MB      =   1000.00
 MB in use           =     31.73
 MB left             =    968.27
 MB needed           =      8.83
 Data fit in memory  = YES
Calculating RI/J V-Matrix + Cholesky decomp.... done (  0.2 sec)
Calculating Nuclear repulsion               ... done (  0.0 sec) ENN=   8932.017683851578 Eh

Diagonalization of the overlap matrix:
Smallest eigenvalue                        ... 1.937e-03
Time for diagonalization                   ...    0.042 sec
Threshold for overlap eigenvalues          ... 1.000e-07
Number of eigenvalues below threshold      ... 0
Time for construction of square roots      ...    0.036 sec
Total time needed                          ...    0.086 sec

-------------------
DFT GRID GENERATION
-------------------

General Integration Accuracy     IntAcc      ... 4.388
Radial Grid Type                 RadialGrid  ... OptM3 with GC (2021)
Angular Grid (max. ang.)         AngularGrid ... 4 (Lebedev-302)
Angular grid pruning method      GridPruning ... 4 (adaptive)
Weight generation scheme         WeightScheme... mBecke (2022)
Basis function cutoff            BFCut       ... 1.0000e-11
Integration weight cutoff        WCut        ... 1.0000e-14
Partially contracted basis set               ... off
Rotationally invariant grid construction     ... off
Angular grids for H and He will be reduced by one unit
Core-polarized basis detected: some atoms will have their core
                               angular grid increased.

Total number of grid points                  ...   343604
Total number of batches                      ...     5400
Average number of points per batch           ...       63
Average number of grid points per atom       ...     5206
Grids setup in   1.0 sec
Initializing property integral containers    ... done (  0.0 sec)

SHARK setup successfully completed in   1.6 seconds

Maximum memory used throughout the entire STARTUP-calculation: 93.7 MB


           ************************************************************
           *        Program running with 16 parallel MPI-processes    *
           *              working on a common directory               *
           ************************************************************
-------------------------------------------------------------------------------
                                 ORCA GUESS
                   Start orbitals & Density for SCF / CASSCF
-------------------------------------------------------------------------------

------------
SCF SETTINGS
------------
Hamiltonian:
 Density Functional     Method          .... DFT(GTOs)
 Exchange Functional    Exchange        .... B88
   X-Alpha parameter    XAlpha          ....  0.666667
   Becke's b parameter  XBeta           ....  0.004200
 Correlation Functional Correlation     .... P86
 LDA part of GGA corr.  LDAOpt          .... PW91-LDA
 Gradients option       PostSCFGGA      .... off
   NL short-range parameter             ....  4.400000
 RI-approximation to the Coulomb term is turned on
   Number of AuxJ basis functions       .... 2482


General Settings:
 Integral files         IntName         .... CU2_BP
 Hartree-Fock type      HFTyp           .... UHF
 Total Charge           Charge          ....   -2
 Multiplicity           Mult            ....    3
 Number of Electrons    NEL             ....  394
 Basis Dimension        Dim             ....  760
 Nuclear Repulsion      ENuc            ....   8932.0176838516 Eh

Convergence Acceleration:
 AO-DIIS                CNVDIIS         .... on
   Start iteration      DIISMaxIt       ....    12
   Startup error        DIISStart       ....  0.200000
   # of expansion vecs  DIISMaxEq       ....     5
   Bias factor          DIISBfac        ....   1.050
   Max. coefficient     DIISMaxC        ....  10.000
 MO-DIIS                CNVKDIIS        .... off
 Trust-Rad. Augm. Hess. CNVTRAH         .... auto
   Auto Start mean grad. ratio tolernc. ....  1.125000
   Auto Start start iteration           ....    50
   Auto Start num. interpolation iter.  ....    10
   Max. Number of Micro iterations      ....    24
   Max. Number of Macro iterations      .... Maxiter - #DIIS iter
   Number of Davidson start vectors     ....     2
   Converg. threshold    (grad. norm)   ....   1.000e-05
   Grad. Scal. Fac. for Micro threshold ....   0.100
   Minimum threshold for Micro iter.    ....   1.000e-02
   NR start threshold (gradient norm)   ....   1.000e-04
   Initial trust radius                 ....   0.400
   Minimum AH scaling param. (alpha)    ....   1.000
   Maximum AH scaling param. (alpha)    .... 1000.000
   Quad. conv. algorithm                .... NR
   White noise on init. David. guess    .... on
   Maximum white noise                  ....   0.010
   Pseudo random numbers                .... off
   Inactive MOs                         .... canonical
   Orbital update algorithm             .... Taylor
   Preconditioner                       .... Diag
   Full preconditioner red. dimension   ....   250
 SOSCF                 CNVSOSCF           .... on
   Start iteration     SOSCFMaxIt         ....   150
   Startup grad/error  SOSCFStart         ....  0.003300
   Hessian update      SOSCFHessUp        .... L-BFGS
   Autom. constraints  SOSCFAutoConstrain .... off
 Level Shifting         CNVShift        .... on
   Level shift para.    LevelShift      ....    0.2500
   Turn off err/grad.   ShiftErr        ....    0.0010
 Zerner damping         CNVZerner       .... off
 Static damping         CNVDamp         .... on
   Fraction old density DampFac         ....    0.7000
   Max. Damping (<1)    DampMax         ....    0.9800
   Min. Damping (>=0)   DampMin         ....    0.0000
   Turn off err/grad.   DampErr         ....    0.1000

SCF Procedure:
 Maximum # iterations   MaxIter         ....   300
 SCF integral mode      SCFMode         .... Direct
   Integral package                     .... SHARK and LIBINT hybrid scheme
 Reset frequency        DirectResetFreq ....    20
 Integral Threshold     Thresh          ....  2.500e-11 Eh
 Primitive CutOff       TCut            ....  2.500e-12 Eh

Convergence Tolerance:
 Convergence Check Mode ConvCheckMode   .... Total+1el-Energy
 Convergence forced     ConvForced      .... 1
 Energy Change          TolE            ....  1.000e-08 Eh
 1-El. energy change                    ....  1.000e-05 Eh
 Orbital Gradient       TolG            ....  1.000e-05
 Orbital Rotation angle TolX            ....  1.000e-05
 DIIS Error             TolErr          ....  5.000e-07


The Flip-Spin feature is operative for generating broken symmetry solutions
List of atoms to flip:
 Cu0
We will now do a high-spin calculation with                 Ms=  1.0
and then try to converge to the broken symmetry state with Ms=  0.0

------------------------------
INITIAL GUESS: MODEL POTENTIAL
------------------------------
Loading Hartree-Fock densities                     ... done
Calculating cut-offs                               ... done
Initializing the effective Hamiltonian             ... done
Setting up the integral package (SHARK)            ... done
Starting the Coulomb interaction                   ... done (   0.2 sec)
Making the grid                                    ... done (   0.3 sec)
Mapping shells                                     ... done
Starting the XC term evaluation                    ... done (   0.1 sec)
  promolecular density results
     # of electrons  =    391.989425544
     EX              =   -450.440555105
     EC              =    -15.905970757
     EX+EC           =   -466.346525863
Transforming the Hamiltonian                       ... done (   0.0 sec)
Diagonalizing the Hamiltonian                      ... done (   0.0 sec)
Back transforming the eigenvectors                 ... done (   0.1 sec)
Now organizing SCF variables                       ... done
                      ------------------
                      INITIAL GUESS DONE (   0.9 sec)
                      ------------------
             **** ENERGY FILE WAS UPDATED (CU2_BP.en.tmp) ****
Finished Guess after   1.1 sec
Maximum memory used throughout the entire GUESS-calculation: 45.2 MB


           ************************************************************
           *        Program running with 16 parallel MPI-processes    *
           *              working on a common directory               *
           ************************************************************

-------------------------------------------------------------------------------------------
                                      ORCA LEAN-SCF
                              memory conserving SCF solver
-------------------------------------------------------------------------------------------

                     ******************************************
                               F L I P    S P I N
                           -----------------------------
                            High-Spin SCF calculation
                                S(HS) =   1.0
                      ******************************************
 ----------------------------------------D-I-I-S--------------------------------------------
Iteration    Energy (Eh)           Delta-E    RMSDP     MaxDP     DIISErr   Damp  Time(sec)
-------------------------------------------------------------------------------------------
               ***  Starting incremental Fock matrix formation  ***
    1    -6077.3902276278513455     0.00e+00  6.37e-03  1.35e-01  1.59e-01  0.700   1.5
Warning: op=0 Small HOMO/LUMO gap (   0.032) - skipping pre-diagonalization
         Will do a full diagonalization
    2    -6078.1918748513635364    -8.02e-01  3.17e-03  8.58e-02  5.07e-02  0.700   1.8
                               ***Turning on AO-DIIS***
    3    -6078.3865435076713766    -1.95e-01  1.76e-03  4.68e-02  3.42e-02  0.700   1.6
    4    -6078.5266771986789536    -1.40e-01  4.32e-03  1.75e-01  3.17e-02  0.000   1.6
    5    -6078.8879585230879457    -3.61e-01  1.20e-03  2.19e-02  2.77e-02  0.000   1.6
    6    -6078.9065893047136342    -1.86e-02  7.57e-04  2.38e-02  9.37e-03  0.000   1.5
    7    -6078.9101580069946067    -3.57e-03  6.13e-04  1.91e-02  2.07e-02  0.000   1.6
    8    -6078.9145879206243990    -4.43e-03  5.85e-04  1.86e-02  2.26e-02  0.000   1.6
    9    -6078.9167716299525637    -2.18e-03  5.98e-04  2.11e-02  2.73e-02  0.000   1.6
   10    -6078.9216650067464798    -4.89e-03  5.76e-04  1.99e-02  2.14e-02  0.000   1.6
   11    -6078.9242917980118364    -2.63e-03  6.63e-04  3.58e-02  2.45e-02  0.000   1.6
   12    -6078.9305006704962580    -6.21e-03  6.26e-04  2.23e-02  1.47e-02  0.000   1.8
   13    -6078.9372985863956274    -6.80e-03  4.47e-04  2.02e-02  1.00e-02  0.000   1.6
   14    -6078.9400775554331631    -2.78e-03  3.93e-04  1.47e-02  6.53e-03  0.000   1.5
   15    -6078.9426469893132889    -2.57e-03  3.21e-04  1.43e-02  4.56e-03  0.000   1.5
   16    -6078.9444169429061731    -1.77e-03  2.80e-04  1.41e-02  3.99e-03  0.000   1.5
   17    -6078.9457782496428990    -1.36e-03  2.54e-04  9.45e-03  3.44e-03  0.000   1.5
                              *** Initializing SOSCF ***
---------------------------------------S-O-S-C-F--------------------------------------
Iteration    Energy (Eh)           Delta-E    RMSDP     MaxDP     MaxGrad    Time(sec)
--------------------------------------------------------------------------------------
   18    -6078.9469146259252739    -1.14e-03  2.19e-04  8.68e-03  2.99e-03     1.9
               *** Restarting incremental Fock matrix formation ***
   19    -6078.9477734004794911    -8.59e-04  4.14e-04  1.57e-02  6.09e-03     1.5
               *** Scaled step length from 0.591838 to 0.200000 ***
   20    -6078.9490844337924500    -1.31e-03  1.04e-03  2.99e-02  8.28e-03     1.4
               *** Scaled step length from 0.257351 to 0.200000 ***
   21    -6078.9511759690994950    -2.09e-03  1.03e-03  2.85e-02  5.32e-03     1.4
   22    -6078.9517504710547655    -5.75e-04  3.76e-04  1.21e-02  6.84e-03     1.5
   23    -6078.9527125759377668    -9.62e-04  4.92e-04  1.29e-02  3.92e-03     1.5
               *** Scaled step length from 0.248210 to 0.200000 ***
   24    -6078.9535892726125894    -8.77e-04  1.02e-03  3.45e-02  3.88e-03     1.5
               *** Scaled step length from 0.423016 to 0.200000 ***
   25    -6078.9548259034636430    -1.24e-03  1.01e-03  3.56e-02  4.36e-03     1.5
   26    -6078.9553147075694142    -4.89e-04  2.80e-04  8.90e-03  2.35e-03     1.5
   27    -6078.9555401765064744    -2.25e-04  1.29e-04  2.07e-03  1.81e-03     1.4
   28    -6078.9556682546844968    -1.28e-04  1.93e-04  3.67e-03  1.31e-03     1.4
   29    -6078.9558012923771457    -1.33e-04  5.24e-04  1.16e-02  1.37e-03     1.4
   30    -6078.9558480778487137    -4.68e-05  9.62e-04  2.16e-02  6.68e-03     1.5
   31    -6078.9553008183102065     5.47e-04  6.11e-04  1.36e-02  1.19e-02     1.5
   32    -6078.9560692556970025    -7.68e-04  3.35e-04  9.86e-03  1.53e-03     1.5
   33    -6078.9559912887852988     7.80e-05  2.55e-04  5.63e-03  2.01e-03     1.5
   34    -6078.9561600404449564    -1.69e-04  1.29e-04  2.66e-03  3.74e-04     1.5
   35    -6078.9561640912943403    -4.05e-06  5.64e-05  1.57e-03  6.79e-04     1.5
   36    -6078.9561771545686497    -1.31e-05  9.63e-05  2.81e-03  5.64e-04     1.5
   37    -6078.9561792331278411    -2.08e-06  5.27e-05  1.31e-03  3.10e-04     1.5
   38    -6078.9561890098848380    -9.78e-06  3.11e-05  8.67e-04  3.14e-04     1.5
               *** Restarting incremental Fock matrix formation ***
   39    -6078.9561919693533127    -2.96e-06  4.15e-05  1.25e-03  3.16e-04     1.7
   40    -6078.9561957942187291    -3.82e-06  7.79e-05  2.05e-03  2.82e-04     1.4
   41    -6078.9561990914899070    -3.30e-06  2.27e-05  6.16e-04  1.78e-04     1.5
   42    -6078.9562005244333704    -1.43e-06  1.93e-05  4.12e-04  1.58e-04     1.6
   43    -6078.9562011647431063    -6.40e-07  1.08e-05  2.92e-04  1.18e-04     1.4
   44    -6078.9562021745186939    -1.01e-06  2.20e-05  5.02e-04  8.67e-05     1.4
   45    -6078.9562027313240833    -5.57e-07  2.36e-05  5.24e-04  5.98e-05     1.4
   46    -6078.9562029863536736    -2.55e-07  7.65e-06  1.68e-04  8.46e-05     1.5
   47    -6078.9562031520872551    -1.66e-07  5.77e-06  1.38e-04  6.20e-05     1.5
   48    -6078.9562032693684159    -1.17e-07  2.95e-06  5.71e-05  1.37e-05     1.5
   49    -6078.9562033240636083    -5.47e-08  2.24e-06  4.43e-05  9.32e-06     1.5
   50    -6078.9562033825441176    -5.85e-08  6.81e-07  1.53e-05  3.69e-06     1.4
   51    -6078.9562034027840127    -2.02e-08  4.86e-07  1.27e-05  2.28e-06     1.5
                  *** Gradient check signals convergence ***

               *****************************************************
               *                     SUCCESS                       *
               *           SCF CONVERGED AFTER  51 CYCLES          *
               *****************************************************

             **** ENERGY FILE WAS UPDATED (CU2_BP.en.tmp) ****

----------------
TOTAL SCF ENERGY
----------------

Total Energy       :      -6078.95620338853951 Eh         -165416.80792 eV

Components:
Nuclear Repulsion  :       8932.01768385157811 Eh          243052.55773 eV
Electronic Energy  :     -15010.97388724011762 Eh         -408469.36565 eV
One Electron Energy:     -26342.86109618170303 Eh         -716825.69314 eV
Two Electron Energy:      11331.88720894158541 Eh          308356.32749 eV

Virial components:
Potential Energy   :     -12133.51303748150531 Eh         -330169.67525 eV
Kinetic Energy     :       6054.55683409296580 Eh          164752.86733 eV
Virial Ratio       :          2.00402991828538

DFT components:
N(Alpha)           :      197.999707351348 electrons
N(Beta)            :      195.999698467347 electrons
N(Total)           :      393.999405818695 electrons
E(X)               :     -455.034446481259 Eh       
E(C)               :      -15.971812262798 Eh       
E(XC)              :     -471.006258744057 Eh       

---------------
SCF CONVERGENCE
---------------

  Last Energy change         ...    2.0240e-08  Tolerance :   1.0000e-08
  Last MAX-Density change    ...    1.2661e-05  Tolerance :   1.0000e-07
  Last RMS-Density change    ...    4.8611e-07  Tolerance :   5.0000e-09
  Last DIIS Error            ...    2.9937e-03  Tolerance :   5.0000e-07
  Last Orbital Gradient      ...    2.2773e-06  Tolerance :   1.0000e-05
  Last Orbital Rotation      ...    7.8170e-05  Tolerance :   1.0000e-05


----------------------
UHF SPIN CONTAMINATION
----------------------

Warning: in a DFT calculation there is little theoretical justification to 
         calculate <S**2> as in Hartree-Fock theory. We will do it anyways
         but you should keep in mind that the values have only limited relevance

Expectation value of <S**2>     :     2.003664
Ideal value S*(S+1) for S=1.0   :     2.000000
Deviation                       :     0.003664


                    ********************************
                    * MULLIKEN POPULATION ANALYSIS *
                    ********************************

--------------------------------------------
MULLIKEN ATOMIC CHARGES AND SPIN POPULATIONS
--------------------------------------------
   0 Cu:    0.395983    0.492946
   1 O :   -0.272628    0.041027
   2 O :   -0.263500    0.041841
   3 O :   -0.254748    0.038698
   4 O :   -0.294097    0.052310
   5 O :   -0.479950    0.294224
   6 O :   -0.373146    0.001001
   7 C :    0.111330   -0.005779
   8 C :    0.376897    0.014490
   9 C :    0.126152   -0.005730
  10 C :    0.365040    0.015216
  11 C :    0.341716   -0.011959
  12 H :   -0.095719    0.018667
  13 H :   -0.078680    0.008636
  14 C :    0.260160    0.001491
  15 H :   -0.042794    0.000675
  16 H :   -0.118325   -0.000712
  17 C :    0.071294   -0.000113
  18 H :   -0.043418   -0.000038
  19 C :    0.173374    0.000166
  20 H :   -0.045036   -0.000110
  21 H :   -0.065629   -0.000035
  22 H :   -0.052684   -0.000025
  23 C :    0.184282   -0.000009
  24 H :    0.000145    0.000028
  25 H :   -0.053195   -0.000003
  26 H :   -0.066745    0.000011
  27 F :   -0.147751    0.000642
  28 F :   -0.114327    0.000365
  29 F :   -0.136612    0.000402
  30 F :   -0.138154    0.000735
  31 F :   -0.126817    0.000373
  32 F :   -0.142423    0.000566
  33 Cu:    0.395978    0.492938
  34 O :   -0.272627    0.041025
  35 O :   -0.263498    0.041845
  36 O :   -0.254746    0.038701
  37 O :   -0.294096    0.052311
  38 O :   -0.479946    0.294232
  39 O :   -0.373148    0.001001
  40 C :    0.111329   -0.005779
  41 C :    0.376897    0.014490
  42 C :    0.126151   -0.005730
  43 C :    0.365040    0.015216
  44 C :    0.341711   -0.011959
  45 H :   -0.095720    0.018661
  46 H :   -0.078673    0.008647
  47 C :    0.260164    0.001486
  48 H :   -0.042795    0.000674
  49 H :   -0.118327   -0.000713
  50 C :    0.071295   -0.000113
  51 H :   -0.043417   -0.000039
  52 C :    0.173374    0.000166
  53 H :   -0.045036   -0.000110
  54 H :   -0.065629   -0.000035
  55 H :   -0.052684   -0.000025
  56 C :    0.184282   -0.000009
  57 H :    0.000145    0.000028
  58 H :   -0.053196   -0.000003
  59 H :   -0.066745    0.000011
  60 F :   -0.147751    0.000642
  61 F :   -0.114327    0.000365
  62 F :   -0.136612    0.000402
  63 F :   -0.138154    0.000735
  64 F :   -0.126816    0.000373
  65 F :   -0.142423    0.000566
Sum of atomic charges         :   -2.0000000
Sum of atomic spin populations:    2.0000000

-----------------------------------------------------
MULLIKEN REDUCED ORBITAL CHARGES AND SPIN POPULATIONS
-----------------------------------------------------
CHARGE
  0 Cus       :     6.573888  s :     6.573888
      pz      :     4.196646  p :    12.604591
      px      :     4.197686
      py      :     4.210259
      dz2     :     1.854731  d :     9.425254
      dxz     :     1.804032
      dyz     :     1.952906
      dx2y2   :     1.834046
      dxy     :     1.979538
      f0      :     0.000048  f :     0.000284
      f+1     :     0.000068
      f-1     :     0.000024
      f+2     :     0.000053
      f-2     :     0.000024
      f+3     :     0.000034
      f-3     :     0.000033

  1 O s       :     3.761134  s :     3.761134
      pz      :     1.576109  p :     4.496162
      px      :     1.593815
      py      :     1.326237
      dz2     :     0.001821  d :     0.015332
      dxz     :     0.000583
      dyz     :     0.003969
      dx2y2   :     0.005061
      dxy     :     0.003899

  2 O s       :     3.760189  s :     3.760189
      pz      :     1.498676  p :     4.487976
      px      :     1.516432
      py      :     1.472868
      dz2     :     0.002222  d :     0.015336
      dxz     :     0.001304
      dyz     :     0.003954
      dx2y2   :     0.003584
      dxy     :     0.004271

  3 O s       :     3.759612  s :     3.759612
      pz      :     1.494867  p :     4.479466
      px      :     1.539301
      py      :     1.445299
      dz2     :     0.002423  d :     0.015670
      dxz     :     0.001433
      dyz     :     0.004882
      dx2y2   :     0.003520
      dxy     :     0.003412

  4 O s       :     3.765464  s :     3.765464
      pz      :     1.632037  p :     4.513960
      px      :     1.525863
      py      :     1.356060
      dz2     :     0.002088  d :     0.014674
      dxz     :     0.000591
      dyz     :     0.003342
      dx2y2   :     0.004478
      dxy     :     0.004175

  5 O s       :     3.854551  s :     3.854551
      pz      :     1.398932  p :     4.617043
      px      :     1.819657
      py      :     1.398454
      dz2     :     0.002473  d :     0.008356
      dxz     :     0.001384
      dyz     :     0.003032
      dx2y2   :     0.000846
      dxy     :     0.000621

  6 O s       :     3.801730  s :     3.801730
      pz      :     1.584891  p :     4.556721
      px      :     1.177168
      py      :     1.794662
      dz2     :     0.002134  d :     0.014694
      dxz     :     0.005881
      dyz     :     0.002074
      dx2y2   :     0.002179
      dxy     :     0.002427

  7 C s       :     3.058003  s :     3.058003
      pz      :     0.897261  p :     2.689748
      px      :     0.892479
      py      :     0.900008
      dz2     :     0.011537  d :     0.140919
      dxz     :     0.010660
      dyz     :     0.036367
      dx2y2   :     0.042740
      dxy     :     0.039615

  8 C s       :     2.975813  s :     2.975813
      pz      :     0.807691  p :     2.457134
      px      :     0.914574
      py      :     0.734869
      dz2     :     0.041434  d :     0.190156
      dxz     :     0.032979
      dyz     :     0.037502
      dx2y2   :     0.040945
      dxy     :     0.037296

  9 C s       :     3.058475  s :     3.058475
      pz      :     0.891036  p :     2.675566
      px      :     0.893611
      py      :     0.890919
      dz2     :     0.029042  d :     0.139807
      dxz     :     0.009827
      dyz     :     0.039628
      dx2y2   :     0.027766
      dxy     :     0.033544

 10 C s       :     2.981344  s :     2.981344
      pz      :     0.964956  p :     2.465852
      px      :     0.757554
      py      :     0.743342
      dz2     :     0.033008  d :     0.187764
      dxz     :     0.037990
      dyz     :     0.028696
      dx2y2   :     0.038544
      dxy     :     0.049527

 11 C s       :     2.793002  s :     2.793002
      pz      :     0.873876  p :     2.798475
      px      :     0.991630
      py      :     0.932969
      dz2     :     0.013525  d :     0.066808
      dxz     :     0.020803
      dyz     :     0.013142
      dx2y2   :     0.014374
      dxy     :     0.004963

 12 H s       :     1.068919  s :     1.068919
      pz      :     0.005864  p :     0.026799
      px      :     0.007639
      py      :     0.013297

 13 H s       :     1.051860  s :     1.051860
      pz      :     0.007275  p :     0.026820
      px      :     0.013272
      py      :     0.006273

 14 C s       :     2.830150  s :     2.830150
      pz      :     0.941311  p :     2.847117
      px      :     0.861065
      py      :     1.044741
      dz2     :     0.010186  d :     0.062573
      dxz     :     0.013833
      dyz     :     0.012146
      dx2y2   :     0.016575
      dxy     :     0.009834

 15 H s       :     1.016028  s :     1.016028
      pz      :     0.006506  p :     0.026766
      px      :     0.003770
      py      :     0.016490

 16 H s       :     1.090920  s :     1.090920
      pz      :     0.012152  p :     0.027404
      px      :     0.004630
      py      :     0.010622

 17 C s       :     3.027344  s :     3.027344
      pz      :     0.960656  p :     2.831622
      px      :     0.866754
      py      :     1.004211
      dz2     :     0.009512  d :     0.069740
      dxz     :     0.018503
      dyz     :     0.014637
      dx2y2   :     0.015239
      dxy     :     0.011850

 18 H s       :     1.019266  s :     1.019266
      pz      :     0.006782  p :     0.024151
      px      :     0.003896
      py      :     0.013474

 19 C s       :     2.735775  s :     2.735775
      pz      :     1.021290  p :     3.058791
      px      :     0.994945
      py      :     1.042556
      dz2     :     0.003095  d :     0.032060
      dxz     :     0.010859
      dyz     :     0.006238
      dx2y2   :     0.008608
      dxy     :     0.003260

 20 H s       :     1.013730  s :     1.013730
      pz      :     0.010884  p :     0.031306
      px      :     0.013200
      py      :     0.007221

 21 H s       :     1.034256  s :     1.034256
      pz      :     0.009685  p :     0.031373
      px      :     0.013657
      py      :     0.008031

 22 H s       :     1.022129  s :     1.022129
      pz      :     0.008920  p :     0.030555
      px      :     0.007976
      py      :     0.013658

 23 C s       :     2.752863  s :     2.752863
      pz      :     1.023917  p :     3.032250
      px      :     0.978617
      py      :     1.029716
      dz2     :     0.002234  d :     0.030606
      dxz     :     0.007157
      dyz     :     0.010294
      dx2y2   :     0.007128
      dxy     :     0.003793

 24 H s       :     0.969413  s :     0.969413
      pz      :     0.011022  p :     0.030442
      px      :     0.007572
      py      :     0.011848

 25 H s       :     1.022330  s :     1.022330
      pz      :     0.009078  p :     0.030865
      px      :     0.007483
      py      :     0.014304

 26 H s       :     1.035628  s :     1.035628
      pz      :     0.009098  p :     0.031117
      px      :     0.012839
      py      :     0.009180

 27 F s       :     3.886422  s :     3.886422
      pz      :     1.522412  p :     5.253184
      px      :     1.892145
      py      :     1.838627
      dz2     :     0.003401  d :     0.008145
      dxz     :     0.001799
      dyz     :     0.002296
      dx2y2   :     0.000317
      dxy     :     0.000332

 28 F s       :     3.868834  s :     3.868834
      pz      :     1.884465  p :     5.236754
      px      :     1.866212
      py      :     1.486076
      dz2     :     0.001185  d :     0.008739
      dxz     :     0.000179
      dyz     :     0.001882
      dx2y2   :     0.003188
      dxy     :     0.002305

 29 F s       :     3.881228  s :     3.881228
      pz      :     1.839361  p :     5.247067
      px      :     1.633722
      py      :     1.773984
      dz2     :     0.001116  d :     0.008316
      dxz     :     0.001856
      dyz     :     0.001015
      dx2y2   :     0.001829
      dxy     :     0.002501

 30 F s       :     3.879790  s :     3.879790
      pz      :     1.720080  p :     5.249947
      px      :     1.654473
      py      :     1.875393
      dz2     :     0.001571  d :     0.008417
      dxz     :     0.003157
      dyz     :     0.000821
      dx2y2   :     0.001619
      dxy     :     0.001249

 31 F s       :     3.872650  s :     3.872650
      pz      :     1.846696  p :     5.245651
      px      :     1.771367
      py      :     1.627587
      dz2     :     0.001143  d :     0.008516
      dxz     :     0.000905
      dyz     :     0.001826
      dx2y2   :     0.001899
      dxy     :     0.002744

 32 F s       :     3.879354  s :     3.879354
      pz      :     1.894596  p :     5.254961
      px      :     1.735115
      py      :     1.625250
      dz2     :     0.001147  d :     0.008108
      dxz     :     0.000736
      dyz     :     0.001272
      dx2y2   :     0.001807
      dxy     :     0.003146

 33 Cus       :     6.573889  s :     6.573889
      pz      :     4.196646  p :    12.604594
      px      :     4.197686
      py      :     4.210262
      dz2     :     1.854729  d :     9.425256
      dxz     :     1.804021
      dyz     :     1.952916
      dx2y2   :     1.834047
      dxy     :     1.979542
      f0      :     0.000048  f :     0.000284
      f+1     :     0.000068
      f-1     :     0.000024
      f+2     :     0.000053
      f-2     :     0.000024
      f+3     :     0.000034
      f-3     :     0.000033

 34 O s       :     3.761134  s :     3.761134
      pz      :     1.576109  p :     4.496160
      px      :     1.593815
      py      :     1.326236
      dz2     :     0.001821  d :     0.015332
      dxz     :     0.000583
      dyz     :     0.003969
      dx2y2   :     0.005061
      dxy     :     0.003899

 35 O s       :     3.760188  s :     3.760188
      pz      :     1.498675  p :     4.487974
      px      :     1.516431
      py      :     1.472868
      dz2     :     0.002222  d :     0.015336
      dxz     :     0.001304
      dyz     :     0.003954
      dx2y2   :     0.003583
      dxy     :     0.004271

 36 O s       :     3.759612  s :     3.759612
      pz      :     1.494865  p :     4.479464
      px      :     1.539300
      py      :     1.445299
      dz2     :     0.002423  d :     0.015670
      dxz     :     0.001433
      dyz     :     0.004882
      dx2y2   :     0.003520
      dxy     :     0.003412

 37 O s       :     3.765463  s :     3.765463
      pz      :     1.632035  p :     4.513959
      px      :     1.525863
      py      :     1.356060
      dz2     :     0.002088  d :     0.014674
      dxz     :     0.000591
      dyz     :     0.003342
      dx2y2   :     0.004478
      dxy     :     0.004175

 38 O s       :     3.854552  s :     3.854552
      pz      :     1.398970  p :     4.617038
      px      :     1.819542
      py      :     1.398526
      dz2     :     0.002473  d :     0.008356
      dxz     :     0.001384
      dyz     :     0.003032
      dx2y2   :     0.000846
      dxy     :     0.000621

 39 O s       :     3.801730  s :     3.801730
      pz      :     1.584892  p :     4.556723
      px      :     1.177169
      py      :     1.794662
      dz2     :     0.002134  d :     0.014694
      dxz     :     0.005881
      dyz     :     0.002074
      dx2y2   :     0.002179
      dxy     :     0.002427

 40 C s       :     3.058002  s :     3.058002
      pz      :     0.897261  p :     2.689750
      px      :     0.892479
      py      :     0.900009
      dz2     :     0.011537  d :     0.140919
      dxz     :     0.010660
      dyz     :     0.036367
      dx2y2   :     0.042740
      dxy     :     0.039615

 41 C s       :     2.975813  s :     2.975813
      pz      :     0.807691  p :     2.457135
      px      :     0.914574
      py      :     0.734869
      dz2     :     0.041434  d :     0.190156
      dxz     :     0.032979
      dyz     :     0.037502
      dx2y2   :     0.040945
      dxy     :     0.037296

 42 C s       :     3.058476  s :     3.058476
      pz      :     0.891036  p :     2.675566
      px      :     0.893611
      py      :     0.890919
      dz2     :     0.029042  d :     0.139807
      dxz     :     0.009827
      dyz     :     0.039628
      dx2y2   :     0.027766
      dxy     :     0.033544

 43 C s       :     2.981344  s :     2.981344
      pz      :     0.964955  p :     2.465852
      px      :     0.757554
      py      :     0.743342
      dz2     :     0.033008  d :     0.187764
      dxz     :     0.037990
      dyz     :     0.028696
      dx2y2   :     0.038544
      dxy     :     0.049527

 44 C s       :     2.793005  s :     2.793005
      pz      :     0.873877  p :     2.798477
      px      :     0.991628
      py      :     0.932972
      dz2     :     0.013525  d :     0.066808
      dxz     :     0.020802
      dyz     :     0.013142
      dx2y2   :     0.014375
      dxy     :     0.004963

 45 H s       :     1.068921  s :     1.068921
      pz      :     0.005864  p :     0.026799
      px      :     0.007638
      py      :     0.013297

 46 H s       :     1.051853  s :     1.051853
      pz      :     0.007275  p :     0.026820
      px      :     0.013272
      py      :     0.006273

 47 C s       :     2.830147  s :     2.830147
      pz      :     0.941309  p :     2.847116
      px      :     0.861067
      py      :     1.044740
      dz2     :     0.010186  d :     0.062573
      dxz     :     0.013833
      dyz     :     0.012146
      dx2y2   :     0.016575
      dxy     :     0.009834

 48 H s       :     1.016029  s :     1.016029
      pz      :     0.006506  p :     0.026766
      px      :     0.003769
      py      :     0.016490

 49 H s       :     1.090923  s :     1.090923
      pz      :     0.012152  p :     0.027404
      px      :     0.004630
      py      :     0.010622

 50 C s       :     3.027344  s :     3.027344
      pz      :     0.960656  p :     2.831621
      px      :     0.866754
      py      :     1.004211
      dz2     :     0.009512  d :     0.069740
      dxz     :     0.018503
      dyz     :     0.014637
      dx2y2   :     0.015239
      dxy     :     0.011850

 51 H s       :     1.019266  s :     1.019266
      pz      :     0.006782  p :     0.024151
      px      :     0.003896
      py      :     0.013474

 52 C s       :     2.735775  s :     2.735775
      pz      :     1.021290  p :     3.058791
      px      :     0.994945
      py      :     1.042555
      dz2     :     0.003095  d :     0.032060
      dxz     :     0.010859
      dyz     :     0.006238
      dx2y2   :     0.008608
      dxy     :     0.003260

 53 H s       :     1.013730  s :     1.013730
      pz      :     0.010884  p :     0.031306
      px      :     0.013200
      py      :     0.007221

 54 H s       :     1.034256  s :     1.034256
      pz      :     0.009685  p :     0.031373
      px      :     0.013657
      py      :     0.008031

 55 H s       :     1.022129  s :     1.022129
      pz      :     0.008920  p :     0.030555
      px      :     0.007976
      py      :     0.013658

 56 C s       :     2.752863  s :     2.752863
      pz      :     1.023917  p :     3.032250
      px      :     0.978617
      py      :     1.029716
      dz2     :     0.002234  d :     0.030606
      dxz     :     0.007157
      dyz     :     0.010294
      dx2y2   :     0.007128
      dxy     :     0.003793

 57 H s       :     0.969413  s :     0.969413
      pz      :     0.011022  p :     0.030442
      px      :     0.007572
      py      :     0.011848

 58 H s       :     1.022330  s :     1.022330
      pz      :     0.009078  p :     0.030865
      px      :     0.007483
      py      :     0.014304

 59 H s       :     1.035628  s :     1.035628
      pz      :     0.009098  p :     0.031117
      px      :     0.012839
      py      :     0.009180

 60 F s       :     3.886422  s :     3.886422
      pz      :     1.522412  p :     5.253184
      px      :     1.892145
      py      :     1.838627
      dz2     :     0.003401  d :     0.008145
      dxz     :     0.001799
      dyz     :     0.002296
      dx2y2   :     0.000317
      dxy     :     0.000332

 61 F s       :     3.868834  s :     3.868834
      pz      :     1.884465  p :     5.236754
      px      :     1.866213
      py      :     1.486076
      dz2     :     0.001185  d :     0.008739
      dxz     :     0.000179
      dyz     :     0.001882
      dx2y2   :     0.003188
      dxy     :     0.002305

 62 F s       :     3.881228  s :     3.881228
      pz      :     1.839361  p :     5.247068
      px      :     1.633722
      py      :     1.773984
      dz2     :     0.001116  d :     0.008316
      dxz     :     0.001856
      dyz     :     0.001015
      dx2y2   :     0.001829
      dxy     :     0.002501

 63 F s       :     3.879790  s :     3.879790
      pz      :     1.720080  p :     5.249947
      px      :     1.654473
      py      :     1.875393
      dz2     :     0.001571  d :     0.008417
      dxz     :     0.003157
      dyz     :     0.000821
      dx2y2   :     0.001619
      dxy     :     0.001249

 64 F s       :     3.872650  s :     3.872650
      pz      :     1.846696  p :     5.245651
      px      :     1.771367
      py      :     1.627587
[...]
      pz      :    -0.000001  p :    -0.000001
      px      :     0.000001
      py      :    -0.000000

 56 C s       :    -0.000008  s :    -0.000008
      pz      :    -0.000002  p :    -0.000010
      px      :    -0.000007
      py      :    -0.000001
      dz2     :     0.000000  d :     0.000000
      dxz     :    -0.000001
      dyz     :     0.000000
      dx2y2   :     0.000001
      dxy     :     0.000000

 57 H s       :     0.000004  s :     0.000004
      pz      :    -0.000001  p :    -0.000001
      px      :     0.000000
      py      :     0.000000

 58 H s       :     0.000000  s :     0.000000
      pz      :     0.000000  p :     0.000001
      px      :     0.000000
      py      :     0.000000

 59 H s       :    -0.000002  s :    -0.000002
      pz      :     0.000001  p :     0.000000
      px      :    -0.000001
      py      :     0.000000

 60 F s       :     0.000044  s :     0.000044
      pz      :     0.000173  p :     0.000700
      px      :     0.000599
      py      :    -0.000071
      dz2     :     0.000017  d :     0.000045
      dxz     :     0.000020
      dyz     :     0.000002
      dx2y2   :     0.000000
      dxy     :     0.000006

 61 F s       :    -0.000008  s :    -0.000008
      pz      :     0.000072  p :     0.000327
      px      :     0.000296
      py      :    -0.000041
      dz2     :     0.000002  d :     0.000052
      dxz     :    -0.000001
      dyz     :     0.000014
      dx2y2   :     0.000003
      dxy     :     0.000035

 62 F s       :     0.000015  s :     0.000015
      pz      :     0.000175  p :     0.000354
      px      :     0.000246
      py      :    -0.000067
      dz2     :     0.000010  d :     0.000042
      dxz     :     0.000002
      dyz     :     0.000007
      dx2y2   :     0.000016
      dxy     :     0.000007

 63 F s       :     0.000064  s :     0.000064
      pz      :     0.000906  p :     0.000785
      px      :    -0.000040
      py      :    -0.000080
      dz2     :     0.000028  d :     0.000046
      dxz     :     0.000012
      dyz     :     0.000001
      dx2y2   :     0.000005
      dxy     :     0.000000

 64 F s       :     0.000002  s :     0.000002
      pz      :     0.000572  p :     0.000383
      px      :    -0.000120
      py      :    -0.000068
      dz2     :     0.000004  d :     0.000048
      dxz     :     0.000009
      dyz     :     0.000028
      dx2y2   :     0.000003
      dxy     :     0.000004

 65 F s       :    -0.000010  s :    -0.000010
      pz      :     0.000338  p :     0.000197
      px      :    -0.000138
      py      :    -0.000003
      dz2     :     0.000003  d :     0.000042
      dxz     :     0.000007
      dyz     :     0.000025
      dx2y2   :     0.000001
      dxy     :     0.000006



                      *****************************
                      * MAYER POPULATION ANALYSIS *
                      *****************************

  NA   - Mulliken gross atomic population
  ZA   - Total nuclear charge
  QA   - Mulliken gross atomic charge
  VA   - Mayer's total valence
  BVA  - Mayer's bonded valence
  FA   - Mayer's free valence

  ATOM       NA         ZA         QA         VA         BVA        FA
  0 Cu    28.6083    29.0000     0.3917     3.1160     2.9811     0.1349
  1 O      8.2730     8.0000    -0.2730     2.2802     2.2788     0.0014
  2 O      8.2638     8.0000    -0.2638     2.2809     2.2797     0.0012
  3 O      8.2553     8.0000    -0.2553     2.2931     2.2917     0.0014
  4 O      8.2954     8.0000    -0.2954     2.2584     2.2574     0.0010
  5 O      8.4725     8.0000    -0.4725     2.1077     2.0194     0.0884
  6 O      8.3735     8.0000    -0.3735     2.1182     2.1182     0.0000
  7 C      5.8886     6.0000     0.1114     4.1849     4.1849     0.0000
  8 C      5.6239     6.0000     0.3761     4.4813     4.4811     0.0002
  9 C      5.8748     6.0000     0.1252     4.1653     4.1653     0.0000
 10 C      5.6361     6.0000     0.3639     4.5202     4.5200     0.0002
 11 C      5.6599     6.0000     0.3401     4.1080     4.1078     0.0002
 12 H      1.0946     1.0000    -0.0946     0.9752     0.9748     0.0004
 13 H      1.0764     1.0000    -0.0764     0.9752     0.9750     0.0001
 14 C      5.7395     6.0000     0.2605     3.9639     3.9639     0.0000
 15 H      1.0419     1.0000    -0.0419     1.0390     1.0390     0.0000
 16 H      1.1178     1.0000    -0.1178     0.9722     0.9722     0.0000
 17 C      5.9288     6.0000     0.0712     4.3563     4.3563    -0.0000
 18 H      1.0430     1.0000    -0.0430     1.0121     1.0121     0.0000
 19 C      5.8268     6.0000     0.1732     3.8924     3.8924     0.0000
 20 H      1.0450     1.0000    -0.0450     1.0082     1.0082     0.0000
 21 H      1.0654     1.0000    -0.0654     0.9988     0.9988     0.0000
 22 H      1.0527     1.0000    -0.0527     1.0215     1.0215     0.0000
 23 C      5.8158     6.0000     0.1842     3.9139     3.9139    -0.0000
 24 H      0.9995     1.0000     0.0005     1.0427     1.0427     0.0000
 25 H      1.0532     1.0000    -0.0532     1.0142     1.0142     0.0000
 26 H      1.0666     1.0000    -0.0666     0.9924     0.9924     0.0000
 27 F      9.1479     9.0000    -0.1479     1.2065     1.2065     0.0000
 28 F      9.1145     9.0000    -0.1145     1.2550     1.2550     0.0000
 29 F      9.1368     9.0000    -0.1368     1.2218     1.2218     0.0000
 30 F      9.1385     9.0000    -0.1385     1.2189     1.2189     0.0000
 31 F      9.1272     9.0000    -0.1272     1.2337     1.2337     0.0000
 32 F      9.1428     9.0000    -0.1428     1.2186     1.2186     0.0000
 33 Cu    28.6083    29.0000     0.3917     3.1160     2.9811     0.1349
 34 O      8.2730     8.0000    -0.2730     2.2802     2.2788     0.0014
 35 O      8.2638     8.0000    -0.2638     2.2809     2.2797     0.0012
 36 O      8.2553     8.0000    -0.2553     2.2931     2.2917     0.0014
 37 O      8.2954     8.0000    -0.2954     2.2584     2.2574     0.0010
 38 O      8.4725     8.0000    -0.4725     2.1077     2.0194     0.0884
 39 O      8.3735     8.0000    -0.3735     2.1182     2.1182     0.0000
 40 C      5.8886     6.0000     0.1114     4.1849     4.1849     0.0000
 41 C      5.6239     6.0000     0.3761     4.4813     4.4811     0.0002
 42 C      5.8748     6.0000     0.1252     4.1653     4.1653     0.0000
 43 C      5.6361     6.0000     0.3639     4.5202     4.5200     0.0002
 44 C      5.6599     6.0000     0.3401     4.1080     4.1078     0.0002
 45 H      1.0946     1.0000    -0.0946     0.9752     0.9748     0.0004
 46 H      1.0764     1.0000    -0.0764     0.9752     0.9750     0.0001
 47 C      5.7395     6.0000     0.2605     3.9639     3.9639     0.0000
 48 H      1.0419     1.0000    -0.0419     1.0390     1.0390     0.0000
 49 H      1.1178     1.0000    -0.1178     0.9722     0.9722     0.0000
 50 C      5.9288     6.0000     0.0712     4.3563     4.3563    -0.0000
 51 H      1.0430     1.0000    -0.0430     1.0121     1.0121     0.0000
 52 C      5.8268     6.0000     0.1732     3.8924     3.8924     0.0000
 53 H      1.0450     1.0000    -0.0450     1.0082     1.0082     0.0000
 54 H      1.0654     1.0000    -0.0654     0.9988     0.9988     0.0000
 55 H      1.0527     1.0000    -0.0527     1.0215     1.0215     0.0000
 56 C      5.8158     6.0000     0.1842     3.9139     3.9139    -0.0000
 57 H      0.9995     1.0000     0.0005     1.0427     1.0427     0.0000
 58 H      1.0532     1.0000    -0.0532     1.0142     1.0142     0.0000
 59 H      1.0666     1.0000    -0.0666     0.9924     0.9924     0.0000
 60 F      9.1479     9.0000    -0.1479     1.2065     1.2065     0.0000
 61 F      9.1145     9.0000    -0.1145     1.2550     1.2550     0.0000
 62 F      9.1368     9.0000    -0.1368     1.2218     1.2218     0.0000
 63 F      9.1385     9.0000    -0.1385     1.2189     1.2189     0.0000
 64 F      9.1272     9.0000    -0.1272     1.2337     1.2337     0.0000
 65 F      9.1428     9.0000    -0.1428     1.2186     1.2186     0.0000

  Mayer bond orders larger than 0.100000
B(  0-Cu,  1-O ) :   0.3814 B(  0-Cu,  2-O ) :   0.3902 B(  0-Cu,  3-O ) :   0.3870 
B(  0-Cu,  4-O ) :   0.3959 B(  0-Cu,  5-O ) :   0.4950 B(  0-Cu, 33-Cu) :   0.4451 
B(  1-O ,  7-C ) :   1.6010 B(  1-O , 35-O ) :   0.1578 B(  2-O , 34-O ) :   0.1578 
B(  2-O , 40-C ) :   1.6243 B(  3-O ,  9-C ) :   1.6386 B(  3-O , 37-O ) :   0.1579 
B(  4-O , 36-O ) :   0.1579 B(  4-O , 42-C ) :   1.5693 B(  5-O , 11-C ) :   1.1763 
B(  5-O , 38-O ) :   0.1560 B(  6-O , 14-C ) :   0.9834 B(  6-O , 17-C ) :   1.0351 
B(  7-C ,  8-C ) :   0.8710 B(  7-C , 35-O ) :   1.6243 B(  8-C , 27-F ) :   1.1425 
B(  8-C , 28-F ) :   1.2133 B(  8-C , 29-F ) :   1.1607 B(  9-C , 10-C ) :   0.8723 
B(  9-C , 37-O ) :   1.5693 B( 10-C , 30-F ) :   1.1734 B( 10-C , 31-F ) :   1.1956 
B( 10-C , 32-F ) :   1.1801 B( 11-C , 12-H ) :   0.8975 B( 11-C , 13-H ) :   0.9022 
B( 11-C , 14-C ) :   1.0506 B( 14-C , 15-H ) :   0.9227 B( 14-C , 16-H ) :   0.8922 
B( 17-C , 18-H ) :   0.9211 B( 17-C , 19-C ) :   1.0800 B( 17-C , 23-C ) :   1.0793 
B( 19-C , 20-H ) :   0.9336 B( 19-C , 21-H ) :   0.9320 B( 19-C , 22-H ) :   0.9363 
B( 23-C , 24-H ) :   0.9417 B( 23-C , 25-H ) :   0.9428 B( 23-C , 26-H ) :   0.9377 
B( 33-Cu, 34-O ) :   0.3814 B( 33-Cu, 35-O ) :   0.3902 B( 33-Cu, 36-O ) :   0.3870 
B( 33-Cu, 37-O ) :   0.3959 B( 33-Cu, 38-O ) :   0.4950 B( 34-O , 40-C ) :   1.6010 
B( 36-O , 42-C ) :   1.6386 B( 38-O , 44-C ) :   1.1763 B( 39-O , 47-C ) :   0.9834 
B( 39-O , 50-C ) :   1.0351 B( 40-C , 41-C ) :   0.8710 B( 41-C , 60-F ) :   1.1425 
B( 41-C , 61-F ) :   1.2133 B( 41-C , 62-F ) :   1.1607 B( 42-C , 43-C ) :   0.8723 
B( 43-C , 63-F ) :   1.1734 B( 43-C , 64-F ) :   1.1956 B( 43-C , 65-F ) :   1.1801 
B( 44-C , 45-H ) :   0.8975 B( 44-C , 46-H ) :   0.9022 B( 44-C , 47-C ) :   1.0506 
B( 47-C , 48-H ) :   0.9227 B( 47-C , 49-H ) :   0.8922 B( 50-C , 51-H ) :   0.9211 
B( 50-C , 52-C ) :   1.0800 B( 50-C , 56-C ) :   1.0793 B( 52-C , 53-H ) :   0.9336 
B( 52-C , 54-H ) :   0.9320 B( 52-C , 55-H ) :   0.9363 B( 56-C , 57-H ) :   0.9417 
B( 56-C , 58-H ) :   0.9428 B( 56-C , 59-H ) :   0.9377 

-------
TIMINGS
-------

Total SCF time: 0 days 0 hours 4 min 25 sec 

Total time                  ....     265.399 sec
Sum of individual times     ....     225.052 sec  ( 84.8%)

Fock matrix formation       ....     161.340 sec  ( 60.8%)
  Startup                   ....       0.842 sec  (  0.5% of F)
  Split-RI-J                ....      94.807 sec  ( 58.8% of F)
  XC integration            ....      56.310 sec  ( 34.9% of F)
    Basis function eval.    ....       7.274 sec  ( 12.9% of XC)
    Density eval.           ....      16.098 sec  ( 28.6% of XC)
    XC-Functional eval.     ....       0.574 sec  (  1.0% of XC)
    XC-Potential eval.      ....      15.126 sec  ( 26.9% of XC)
Diagonalization             ....       0.000 sec  (  0.0%)
Density matrix formation    ....      11.236 sec  (  4.2%)
Total Energy calculation    ....       2.236 sec  (  0.8%)
Population analysis         ....       0.445 sec  (  0.2%)
Orbital Transformation      ....      24.603 sec  (  9.3%)
Orbital Orthonormalization  ....       0.000 sec  (  0.0%)
DIIS solution               ....      25.121 sec  (  9.5%)
NR solution                 ....       0.071 sec  (  0.0%)
Finished LeanSCF after 348.4 sec

Maximum memory used throughout the entire LEANSCF-calculation: 67.8 MB

-------------------------   --------------------
FINAL SINGLE POINT ENERGY     -6078.952521635051
-------------------------   --------------------



           ************************************************************
           *        Program running with 16 parallel MPI-processes    *
           *              working on a common directory               *
           ************************************************************

------------------------------------------------------------------------------
                              ORCA PROPERTY CALCULATIONS
------------------------------------------------------------------------------

GBWName                                 ... CU2_BP.gbw
Number of atoms                         ...     66
Number of basis functions               ...    760
Max core memory                         ...   1000 MB

Electric properties:
Dipole moment                           ... YES
Quadrupole moment                       ...  NO
Static polarizability (Dipole/Dipole)   ...  NO
Static polarizability (Dipole/Quad.)    ...  NO
Static polarizability (Quad./Quad.)     ...  NO
Static polarizability (Velocity)        ...  NO
Static hyperpolarizability              ...  NO

Atomic electric properties:
Dipole moment                           ...  NO
Quadrupole moment                       ...  NO
Static polarizability                   ...  NO

Choice of electric origin               ... Center of mass
Position of electric origin             ...     0.000000     0.000000     0.000000

General magnetic properties:
Magnetizability                         ...  NO

EPR properties:
g-Tensor (aka g-matrix)                 ...  NO
Zero-Field splitting spin-orbit         ...  NO
Zero-field splitting spin-spin          ...  NO
Hyperfine couplings                     ...  NO (   0 nuclei)
Quadrupole couplings                    ...  NO (   0 nuclei)
Contact density                         ...  NO (   0 nuclei)

NMR properties:
Chemical shifts                         ...  NO (   0 nuclei)
Spin-rotation constants                 ...  NO (   0 nuclei)
Spin-spin couplings                     ...  NO (   0 nuclei,    0 pairs)

Choice of magnetic origin               ... GIAO
Position of magnetic origin             ...     0.000000     0.000000     0.000000

Properties with geometric perturbations:
SCF Hessian                             ...  NO
IR spectrum                             ...  NO
VCD spectrum                            ...  NO
X-ray spectroscopy properties:
SCF XES/XAS/RIXS spectra                ...  NO

SCF SOC stabilization energy            ...  NO
Diagonal Born-Oppenheimer correction    ...  NO

-------------
DIPOLE MOMENT
-------------

Method             : SCF
Type of density    : Electron Density
Multiplicity       :   1
Irrep              :   0
Energy             : -6078.9525216350511982 Eh
Basis              : AO
                                X                 Y                 Z
Electronic contribution:      0.000000443      -0.000000155       0.000000204
Nuclear contribution   :      0.000000000      -0.000000000       0.000000000
                        -----------------------------------------
Total Dipole Moment    :      0.000000443      -0.000000155       0.000000204
                        -----------------------------------------
Magnitude (a.u.)       :      0.000000512
Magnitude (Debye)      :      0.000001302



--------------------
Rotational spectrum 
--------------------
 
Rotational constants in cm-1:             0.002948             0.001717             0.001580 
Rotational constants in MHz :            88.364196            51.471294            47.376530 

Dipole components along the rotational axes: 
x,y,z [a.u.] :     0.000000    -0.000000     0.000000 
x,y,z [Debye]:     0.000001    -0.000000     0.000000 

 

Dipole moment calculation done in   0.0 sec 

Maximum memory used throughout the entire PROP-calculation: 54.6 MB

--------------------------------
SUGGESTED CITATIONS FOR THIS RUN
--------------------------------

Below you find a list of papers that are relevant to this ORCA run
We neither can nor want to force you to cite these papers, but we appreciate if you do
You receive ORCA, which is the product of decades of hard work by many enthusiastic individuals, for free
The only thing we kindly ask in return is that you cite our papers,
We deeply appreciate it, if you show your appreciation for ORCA by not just citing the generic ORCA reference.

Please note that relegating all ORCA citations to the supporting information does *not* help us.
SI sections are not indexed - citations you put there will not count into any citation statistics
But we need these citations in order to attract the funding resources that allow us to do what we are doing

Therefore, if you are a happy ORCA user, please consider citing a few of the papers listed below in the main body of your paper

In addition to the list printed below, the program has created the file CU2_BP.bibtex that contains the list in bibtex format
You can import this file easily into all common literature databanks and citation aid programs


List of essential papers. We consider these as the minimum necessary citations

  1. Neese, F.
     Software update: the ORCA program system, version 6.0
     WIRES Comput. Molec. Sci. 2025 15(1), e70019
     doi.org/10.1002/wcms.7019

List of papers to cite with high priority. The work reported in these papers was absolutely
necessary for this run to complete.
Our perspective: the developers of density functionals and basis sets usually get cited in chemistry papers
Good! But without the algorithms to do something with them, the functionals or basis sets would not do anything.
Hence, in our opinion, the algorithm design and method developments papers are equally worthy of getting cited

  1. Neese, F.
     An improvement of the resolution of the identity approximation for the formation of the Coulomb matrix
     J. Comp. Chem. 2003 24(14), 1740-1747
     doi.org/10.1002/jcc.10318
  2. Neese, F.
     Definition of corresponding orbitals and the diradical character in broken symmetry DFT calculations on spin coupled systems
     J. Phys. Chem. Solids 2004 65(4), 781-785
     doi.org/10.1016/j.jpcs.2003.11.015
  3. Helmich-Paris, B.
     A trust-region augmented Hessian implementation for restricted and unrestricted Hartree–Fock and Kohn–Sham methods
     J. Chem. Phys. 2021 154 , 164104
     doi.org/10.1063/5.0040798
  4. Neese, F.
     The SHARK Integral Generation and Digestion System
     J. Comp. Chem. 2022 44(3), 381
     doi.org/10.1002/jcc.26942

List of suggested additional citations. These are papers that are important in the 'surrounding' of 
of this run, or papers that preceded the highly important papers. If you like your results we are grateful for a citation.

  1. Neese, F.
     The ORCA program system
     WIRES Comput. Molec. Sci. 2012 2(1), 73-78
     doi.org/10.1002/wcms.81
  2. Neese, F.
     Software update: the ORCA program system, version 4.0
     WIRES Comput. Molec. Sci. 2018 8(1), 1-6
     doi.org/10.1002/wcms.1327
  3. Neese, F.; Wennmohs, F.; Becker, U.; Riplinger, C.
     The ORCA quantum chemistry program package
     J. Chem. Phys. 2020 152(22), 224108
     doi.org/10.1063/5.0004608
  4. Neese, F.
     Software update: The ORCA program system—Version 5.0
     WIRES Comput. Molec. Sci. 2022 12(1), e1606
     doi.org/10.1002/wcms.1606

List of optional additional citations

  1. Neese, F.
     Approximate second-order SCF convergence for spin unrestricted wavefunctions
     Chem. Phys. Lett. 2000 325(1-3), 93-98
     doi.org/10.1016/s0009-2614(00)00662-x

Timings for individual modules:

Sum of individual times          ...      351.515 sec (=   5.859 min)
Startup calculation              ...        1.666 sec (=   0.028 min)   0.5 %
SCF iterations                   ...      349.596 sec (=   5.827 min)  99.5 %
Property calculations            ...        0.253 sec (=   0.004 min)   0.1 %
                             ****ORCA TERMINATED NORMALLY****
TOTAL RUN TIME: 0 days 0 hours 5 minutes 51 seconds 797 msec
