 Entering Link 1 = C:\G16W\l1.exe PID=     30276.
  
 Copyright (c) 1988-2017, Gaussian, Inc.  All Rights Reserved.
  
 This is part of the Gaussian(R) 16 program.  It is based on
 the Gaussian(R) 09 system (copyright 2009, Gaussian, Inc.),
 the Gaussian(R) 03 system (copyright 2003, Gaussian, Inc.),
 the Gaussian(R) 98 system (copyright 1998, Gaussian, Inc.),
 the Gaussian(R) 94 system (copyright 1995, Gaussian, Inc.),
 the Gaussian 92(TM) system (copyright 1992, Gaussian, Inc.),
 the Gaussian 90(TM) system (copyright 1990, Gaussian, Inc.),
 the Gaussian 88(TM) system (copyright 1988, Gaussian, Inc.),
 the Gaussian 86(TM) system (copyright 1986, Carnegie Mellon
 University), and the Gaussian 82(TM) system (copyright 1983,
 Carnegie Mellon University). Gaussian is a federally registered
 trademark of Gaussian, Inc.
  
 This software contains proprietary and confidential information,
 including trade secrets, belonging to Gaussian, Inc.
  
 This software is provided under written license and may be
 used, copied, transmitted, or stored only in accord with that
 written license.
  
 The following legend is applicable only to US Government
 contracts under FAR:
  
                    RESTRICTED RIGHTS LEGEND
  
 Use, reproduction and disclosure by the US Government is
 subject to restrictions as set forth in subparagraphs (a)
 and (c) of the Commercial Computer Software - Restricted
 Rights clause in FAR 52.227-19.
  
 Gaussian, Inc.
 340 Quinnipiac St., Bldg. 40, Wallingford CT 06492
  
  
 ---------------------------------------------------------------
 Warning -- This program may not be used in any manner that
 competes with the business of Gaussian, Inc. or will provide
 assistance to any competitor of Gaussian, Inc.  The licensee
 of this program is prohibited from giving any competitor of
 Gaussian, Inc. access to this program.  By using this program,
 the user acknowledges that Gaussian, Inc. is engaged in the
 business of creating and licensing software in the field of
 computational chemistry and represents and warrants to the
 licensee that it is not a competitor of Gaussian, Inc. and that
 it will not use this program in any manner prohibited above.
 ---------------------------------------------------------------
  

 Cite this work as:
 Gaussian 16, Revision B.01,
 M. J. Frisch, G. W. Trucks, H. B. Schlegel, G. E. Scuseria, 
 M. A. Robb, J. R. Cheeseman, G. Scalmani, V. Barone, 
 G. A. Petersson, H. Nakatsuji, X. Li, M. Caricato, A. V. Marenich, 
 J. Bloino, B. G. Janesko, R. Gomperts, B. Mennucci, H. P. Hratchian, 
 J. V. Ortiz, A. F. Izmaylov, J. L. Sonnenberg, D. Williams-Young, 
 F. Ding, F. Lipparini, F. Egidi, J. Goings, B. Peng, A. Petrone, 
 T. Henderson, D. Ranasinghe, V. G. Zakrzewski, J. Gao, N. Rega, 
 G. Zheng, W. Liang, M. Hada, M. Ehara, K. Toyota, R. Fukuda, 
 J. Hasegawa, M. Ishida, T. Nakajima, Y. Honda, O. Kitao, H. Nakai, 
 T. Vreven, K. Throssell, J. A. Montgomery, Jr., J. E. Peralta, 
 F. Ogliaro, M. J. Bearpark, J. J. Heyd, E. N. Brothers, K. N. Kudin, 
 V. N. Staroverov, T. A. Keith, R. Kobayashi, J. Normand, 
 K. Raghavachari, A. P. Rendell, J. C. Burant, S. S. Iyengar, 
 J. Tomasi, M. Cossi, J. M. Millam, M. Klene, C. Adamo, R. Cammi, 
 J. W. Ochterski, R. L. Martin, K. Morokuma, O. Farkas, 
 J. B. Foresman, and D. J. Fox, Gaussian, Inc., Wallingford CT, 2016.
 
 ******************************************
 Gaussian 16:  EM64W-G16RevB.01 16-Dec-2017
                07-Sep-2025 
 ******************************************
 %chk=C:\G16W\Scratch\CFH2OH.chk
 %mem=8GB
 %nprocshared=20
 Will use up to   20 processors via shared memory.
 ----------------------------------------------------------------------
 #p B3LYP/cc-pVTZ TD=(NStates=5,WhenReduce=2) Geom=AllCheck SCF=XQC NoS
 ymm
 ----------------------------------------------------------------------
 1/29=7,38=1,172=1/1;
 2/12=2,15=1,40=1/2;
 3/5=16,6=1,11=9,14=-4,25=1,30=1,74=-5/1,2,3,8;
 4//1;
 5/5=2,8=3,13=1,38=5/2,8;
 8/6=1,10=1,108=5/1;
 9/41=5,42=1,43=2,70=2/14;
 6/7=2,8=2,9=2,10=2/1;
 99/5=1,9=1/99;
 Leave Link    1 at Sun Sep 07 19:47:24 2025, MaxMem=  1073741824 cpu:               0.0 elap:               0.3
 (Enter C:\G16W\l101.exe)
 Structure from the checkpoint file:  "C:\G16W\Scratch\CFH2OH.chk"
 -------------------
 CFH2OH optimization
 -------------------
 Charge =  0 Multiplicity = 1
 Redundant internal coordinates found in file.  (old form).
 C,0,-1.3066294056,-0.2703008671,-0.8737785343
 H,0,-0.9106813452,0.2106423058,0.0281586149
 H,0,-0.9101619247,0.2102879225,-1.7756757693
 F,0,-0.8787712633,-1.5688604155,-0.8734855001
 O,0,-2.7019425584,-0.3147934851,-0.8741440886
 H,0,-3.0455119328,0.5840431794,-0.8712262325
 Recover connectivity data from disk.
 ITRead=  0  0  0  0  0  0
 MicOpt= -1 -1 -1 -1 -1 -1
                           ----------------------------
                           !    Current Parameters    !
                           ! (Angstroms and Degrees)  !
 --------------------------                            --------------------------
 ! Name  Definition              Value                                          !
 --------------------------------------------------------------------------------
 ! R1    R(1,2)                  1.0962                                         !
 ! R2    R(1,3)                  1.0962                                         !
 ! R3    R(1,4)                  1.3672                                         !
 ! R4    R(1,5)                  1.396                                          !
 ! R5    R(5,6)                  0.9623                                         !
 ! A1    A(2,1,3)              110.7312                                         !
 ! A2    A(2,1,4)              107.668                                          !
 ! A3    A(2,1,5)              112.0384                                         !
 ! A4    A(3,1,4)              107.6619                                         !
 ! A5    A(3,1,5)              112.0404                                         !
 ! A6    A(4,1,5)              106.41                                           !
 ! A7    A(1,5,6)              109.0922                                         !
 ! D1    D(2,1,5,6)             62.3801                                         !
 ! D2    D(3,1,5,6)            -62.7813                                         !
 ! D3    D(4,1,5,6)            179.8026                                         !
 --------------------------------------------------------------------------------
 NAtoms=      6 NQM=        6 NQMF=       0 NMMI=      0 NMMIF=      0
                NMic=       0 NMicF=      0.
                    Isotopes and Nuclear Properties:
 (Nuclear quadrupole moments (NQMom) in fm**2, nuclear magnetic moments (NMagM)
  in nuclear magnetons)

  Atom         1           2           3           4           5           6
 IAtWgt=          12           1           1          19          16           1
 AtmWgt=  12.0000000   1.0078250   1.0078250  18.9984033  15.9949146   1.0078250
 NucSpn=           0           1           1           1           0           1
 AtZEff=   3.6000000   1.0000000   1.0000000   6.7500000   5.6000000   1.0000000
 NQMom=    0.0000000   0.0000000   0.0000000   0.0000000   0.0000000   0.0000000
 NMagM=    0.0000000   2.7928460   2.7928460   2.6288670   0.0000000   2.7928460
 AtZNuc=   6.0000000   1.0000000   1.0000000   9.0000000   8.0000000   1.0000000
 Leave Link  101 at Sun Sep 07 19:47:24 2025, MaxMem=  1073741824 cpu:               0.0 elap:               0.5
 (Enter C:\G16W\l202.exe)
                          Input orientation:                          
 ---------------------------------------------------------------------
 Center     Atomic      Atomic             Coordinates (Angstroms)
 Number     Number       Type             X           Y           Z
 ---------------------------------------------------------------------
      1          6           0       -1.306629   -0.270301   -0.873779
      2          1           0       -0.910681    0.210642    0.028159
      3          1           0       -0.910162    0.210288   -1.775676
      4          9           0       -0.878771   -1.568860   -0.873486
      5          8           0       -2.701943   -0.314793   -0.874144
      6          1           0       -3.045512    0.584043   -0.871226
 ---------------------------------------------------------------------
                    Distance matrix (angstroms):
                    1          2          3          4          5
     1  C    0.000000
     2  H    1.096162   0.000000
     3  H    1.096162   1.803834   0.000000
     4  F    1.367231   1.995147   1.995069   0.000000
     5  O    1.396022   2.073367   2.073390   2.212835   0.000000
     6  H    1.937427   2.346449   2.348924   3.054466   0.962266
                    6
     6  H    0.000000
 Symmetry turned off by external request.
 Stoichiometry    CH3FO
 Framework group  C1[X(CH3FO)]
 Deg. of freedom    12
 Full point group                 C1      NOp   1
 Rotational constants (GHZ):          46.9735265          10.5075133           9.0934061
 Leave Link  202 at Sun Sep 07 19:47:25 2025, MaxMem=  1073741824 cpu:               0.0 elap:               0.3
 (Enter C:\G16W\l301.exe)
 Standard basis: CC-pVTZ (5D, 7F)
 Ernie: Thresh=  0.10000D-02 Tol=  0.10000D-05 Strict=F.
 Ernie:  9 primitive shells out of 102 were deleted.
   132 basis functions,   207 primitive gaussians,   150 cartesian basis functions
    13 alpha electrons       13 beta electrons
       nuclear repulsion energy        79.3058625220 Hartrees.
 IExCor=  402 DFT=T Ex+Corr=B3LYP ExCW=0 ScaHFX=  0.200000
 ScaDFX=  0.800000  0.720000  1.000000  0.810000 ScalE2=  1.000000  1.000000
 IRadAn=      5 IRanWt=     -1 IRanGd=            0 ICorTp=0 IEmpDi=  4
 NAtoms=    6 NActive=    6 NUniq=    6 SFac= 1.00D+00 NAtFMM=   60 NAOKFM=F Big=F
 Integral buffers will be    131072 words long.
 Regular integral format.
 Two-electron integral symmetry is turned off.
 Leave Link  301 at Sun Sep 07 19:47:25 2025, MaxMem=  1073741824 cpu:               0.0 elap:               0.3
 (Enter C:\G16W\l302.exe)
 NPDir=0 NMtPBC=     1 NCelOv=     1 NCel=       1 NClECP=     1 NCelD=      1
         NCelK=      1 NCelE2=     1 NClLst=     1 CellRange=     0.0.
 One-electron integrals computed using PRISM.
 NBasis=   132 RedAO= T EigKep=  2.02D-03  NBF=   132
 NBsUse=   132 1.00D-06 EigRej= -1.00D+00 NBFU=   132
 Precomputing XC quadrature grid using
 IXCGrd= 4 IRadAn=           5 IRanWt=          -1 IRanGd=           0 AccXCQ= 0.00D+00.
 Generated NRdTot=       0 NPtTot=           0 NUsed=           0 NTot=          32
 NSgBfM=   150   150   150   150   150 MxSgAt=     6 MxSgA2=     6.
 Leave Link  302 at Sun Sep 07 19:47:26 2025, MaxMem=  1073741824 cpu:               1.0 elap:               0.9
 (Enter C:\G16W\l303.exe)
 DipDrv:  MaxL=1.
 Leave Link  303 at Sun Sep 07 19:47:27 2025, MaxMem=  1073741824 cpu:               1.0 elap:               0.6
 (Enter C:\G16W\l308.exe)
 Leave Link  308 at Sun Sep 07 19:47:27 2025, MaxMem=  1073741824 cpu:               0.0 elap:               0.4
 (Enter C:\G16W\l401.exe)
 ExpMin= 1.03D-01 ExpMax= 1.95D+04 ExpMxC= 6.65D+02 IAcc=3 IRadAn=         5 AccDes= 0.00D+00
 Harris functional with IExCor=  402 and IRadAn=       5 diagonalized for initial guess.
 HarFok:  IExCor=  402 AccDes= 0.00D+00 IRadAn=         5 IDoV= 1 UseB2=F ITyADJ=14
 ICtDFT=  3500011 ScaDFX=  1.000000  1.000000  1.000000  1.000000
 FoFCou: FMM=F IPFlag=           0 FMFlag=      100000 FMFlg1=           0
         NFxFlg=           0 DoJE=T BraDBF=F KetDBF=T FulRan=T
         wScrn=  0.000000 ICntrl=       500 IOpCl=  0 I1Cent=   200000004 NGrid=           0
         NMat0=    1 NMatS0=      1 NMatT0=    0 NMatD0=    1 NMtDS0=    0 NMtDT0=    0
 Symmetry not used in FoFCou.
 Harris En= -215.054881846155    
 JPrj=0 DoOrth=F DoCkMO=F.
 Leave Link  401 at Sun Sep 07 19:47:29 2025, MaxMem=  1073741824 cpu:               2.0 elap:               1.7
 (Enter C:\G16W\l502.exe)
 Keep R1 ints in memory in canonical form, NReq=58058535.
 FoFCou: FMM=F IPFlag=           0 FMFlag=           0 FMFlg1=           0
         NFxFlg=           0 DoJE=F BraDBF=F KetDBF=F FulRan=T
         wScrn=  0.000000 ICntrl=       600 IOpCl=  0 I1Cent=           0 NGrid=           0
         NMat0=    1 NMatS0=   8778 NMatT0=    0 NMatD0=    1 NMtDS0=    0 NMtDT0=    0
 Symmetry not used in FoFCou.
 Two-electron integral symmetry not used.
 Closed shell SCF:
 Using DIIS extrapolation, IDIIS=  1040.
 NGot=  1073741824 LenX=  1035161691 LenY=  1035138750
 Requested convergence on RMS density matrix=1.00D-08 within  32 cycles.
 Requested convergence on MAX density matrix=1.00D-06.
 Requested convergence on             energy=1.00D-06.
 No special actions if energy rises.
 Integral accuracy reduced to 1.0D-05 until final iterations.

 Cycle   1  Pass 0  IDiag  1:
 E= -214.981514634847    
 DIIS: error= 2.69D-02 at cycle   1 NSaved=   1.
 NSaved= 1 IEnMin= 1 EnMin= -214.981514634847     IErMin= 1 ErrMin= 2.69D-02
 ErrMax= 2.69D-02  0.00D+00 EMaxC= 1.00D-01 BMatC= 1.08D-01 BMatP= 1.08D-01
 IDIUse=3 WtCom= 7.31D-01 WtEn= 2.69D-01
 Coeff-Com:  0.100D+01
 Coeff-En:   0.100D+01
 Coeff:      0.100D+01
 Gap=     0.243 Goal=   None    Shift=    0.000
 GapD=    0.243 DampG=1.000 DampE=0.500 DampFc=0.5000 IDamp=-1.
 Damping current iteration by 5.00D-01
 RMSDP=3.65D-03 MaxDP=7.21D-02              OVMax= 1.51D-01

 Cycle   2  Pass 0  IDiag  1:
 E= -215.002561597777     Delta-E=       -0.021046962930 Rises=F Damp=T
 DIIS: error= 7.68D-03 at cycle   2 NSaved=   2.
 NSaved= 2 IEnMin= 2 EnMin= -215.002561597777     IErMin= 2 ErrMin= 7.68D-03
 ErrMax= 7.68D-03  0.00D+00 EMaxC= 1.00D-01 BMatC= 1.05D-02 BMatP= 1.08D-01
 IDIUse=3 WtCom= 9.23D-01 WtEn= 7.68D-02
 Coeff-Com:  0.183D+00 0.817D+00
 Coeff-En:   0.320D+00 0.680D+00
 Coeff:      0.193D+00 0.807D+00
 Gap=     0.327 Goal=   None    Shift=    0.000
 RMSDP=6.75D-04 MaxDP=1.54D-02 DE=-2.10D-02 OVMax= 8.94D-02

 Cycle   3  Pass 0  IDiag  1:
 E= -215.048835003513     Delta-E=       -0.046273405736 Rises=F Damp=F
 DIIS: error= 4.16D-03 at cycle   3 NSaved=   3.
 NSaved= 3 IEnMin= 3 EnMin= -215.048835003513     IErMin= 3 ErrMin= 4.16D-03
 ErrMax= 4.16D-03  0.00D+00 EMaxC= 1.00D-01 BMatC= 1.42D-03 BMatP= 1.05D-02
 IDIUse=3 WtCom= 9.58D-01 WtEn= 4.16D-02
 Coeff-Com:  0.100D-01 0.250D+00 0.740D+00
 Coeff-En:   0.000D+00 0.000D+00 0.100D+01
 Coeff:      0.960D-02 0.239D+00 0.751D+00
 Gap=     0.319 Goal=   None    Shift=    0.000
 RMSDP=2.10D-04 MaxDP=4.89D-03 DE=-4.63D-02 OVMax= 1.23D-02

 Cycle   4  Pass 0  IDiag  1:
 E= -215.049704218343     Delta-E=       -0.000869214829 Rises=F Damp=F
 DIIS: error= 2.10D-03 at cycle   4 NSaved=   4.
 NSaved= 4 IEnMin= 4 EnMin= -215.049704218343     IErMin= 4 ErrMin= 2.10D-03
 ErrMax= 2.10D-03  0.00D+00 EMaxC= 1.00D-01 BMatC= 3.29D-04 BMatP= 1.42D-03
 IDIUse=3 WtCom= 9.79D-01 WtEn= 2.10D-02
 Coeff-Com: -0.266D-02 0.676D-01 0.369D+00 0.566D+00
 Coeff-En:   0.000D+00 0.000D+00 0.137D+00 0.863D+00
 Coeff:     -0.260D-02 0.661D-01 0.364D+00 0.573D+00
 Gap=     0.317 Goal=   None    Shift=    0.000
 RMSDP=9.01D-05 MaxDP=1.79D-03 DE=-8.69D-04 OVMax= 4.01D-03

 Cycle   5  Pass 0  IDiag  1:
 E= -215.049943712767     Delta-E=       -0.000239494424 Rises=F Damp=F
 DIIS: error= 2.66D-04 at cycle   5 NSaved=   5.
 NSaved= 5 IEnMin= 5 EnMin= -215.049943712767     IErMin= 5 ErrMin= 2.66D-04
 ErrMax= 2.66D-04  0.00D+00 EMaxC= 1.00D-01 BMatC= 1.34D-05 BMatP= 3.29D-04
 IDIUse=3 WtCom= 9.97D-01 WtEn= 2.66D-03
 Coeff-Com: -0.110D-02 0.588D-02 0.887D-01 0.228D+00 0.678D+00
 Coeff-En:   0.000D+00 0.000D+00 0.000D+00 0.000D+00 0.100D+01
 Coeff:     -0.110D-02 0.586D-02 0.885D-01 0.228D+00 0.679D+00
 Gap=     0.317 Goal=   None    Shift=    0.000
 RMSDP=1.69D-05 MaxDP=3.33D-04 DE=-2.39D-04 OVMax= 8.33D-04

 Cycle   6  Pass 0  IDiag  1:
 E= -215.049950022909     Delta-E=       -0.000006310142 Rises=F Damp=F
 DIIS: error= 1.14D-04 at cycle   6 NSaved=   6.
 NSaved= 6 IEnMin= 6 EnMin= -215.049950022909     IErMin= 6 ErrMin= 1.14D-04
 ErrMax= 1.14D-04  0.00D+00 EMaxC= 1.00D-01 BMatC= 2.31D-06 BMatP= 1.34D-05
 IDIUse=3 WtCom= 9.99D-01 WtEn= 1.14D-03
 Coeff-Com: -0.576D-03 0.204D-03 0.367D-01 0.109D+00 0.403D+00 0.452D+00
 Coeff-En:   0.000D+00 0.000D+00 0.000D+00 0.000D+00 0.487D-01 0.951D+00
 Coeff:     -0.576D-03 0.204D-03 0.367D-01 0.109D+00 0.403D+00 0.452D+00
 Gap=     0.317 Goal=   None    Shift=    0.000
 RMSDP=5.55D-06 MaxDP=1.08D-04 DE=-6.31D-06 OVMax= 3.13D-04

 Initial convergence to 1.0D-05 achieved.  Increase integral accuracy.
 Cycle   7  Pass 1  IDiag  1:
 E= -215.049955080625     Delta-E=       -0.000005057715 Rises=F Damp=F
 DIIS: error= 9.34D-06 at cycle   1 NSaved=   1.
 NSaved= 1 IEnMin= 1 EnMin= -215.049955080625     IErMin= 1 ErrMin= 9.34D-06
 ErrMax= 9.34D-06  0.00D+00 EMaxC= 1.00D-01 BMatC= 1.54D-08 BMatP= 1.54D-08
 IDIUse=1 WtCom= 1.00D+00 WtEn= 0.00D+00
 Coeff-Com:  0.100D+01
 Coeff:      0.100D+01
 Gap=     0.317 Goal=   None    Shift=    0.000
 RMSDP=5.55D-06 MaxDP=1.08D-04 DE=-5.06D-06 OVMax= 4.27D-05

 Cycle   8  Pass 1  IDiag  1:
 E= -215.049955079704     Delta-E=        0.000000000920 Rises=F Damp=F
 DIIS: error= 1.09D-05 at cycle   2 NSaved=   2.
 NSaved= 2 IEnMin= 1 EnMin= -215.049955080625     IErMin= 1 ErrMin= 9.34D-06
 ErrMax= 1.09D-05  0.00D+00 EMaxC= 1.00D-01 BMatC= 1.87D-08 BMatP= 1.54D-08
 IDIUse=1 WtCom= 1.00D+00 WtEn= 0.00D+00
 Coeff-Com:  0.528D+00 0.472D+00
 Coeff:      0.528D+00 0.472D+00
 Gap=     0.317 Goal=   None    Shift=    0.000
 RMSDP=4.89D-07 MaxDP=1.04D-05 DE= 9.20D-10 OVMax= 3.22D-05

 Cycle   9  Pass 1  IDiag  1:
 E= -215.049955090635     Delta-E=       -0.000000010931 Rises=F Damp=F
 DIIS: error= 1.87D-06 at cycle   3 NSaved=   3.
 NSaved= 3 IEnMin= 3 EnMin= -215.049955090635     IErMin= 3 ErrMin= 1.87D-06
 ErrMax= 1.87D-06  0.00D+00 EMaxC= 1.00D-01 BMatC= 9.12D-10 BMatP= 1.54D-08
 IDIUse=1 WtCom= 1.00D+00 WtEn= 0.00D+00
 Coeff-Com:  0.110D+00 0.202D+00 0.688D+00
 Coeff:      0.110D+00 0.202D+00 0.688D+00
 Gap=     0.317 Goal=   None    Shift=    0.000
 RMSDP=1.36D-07 MaxDP=2.78D-06 DE=-1.09D-08 OVMax= 7.04D-06

 Cycle  10  Pass 1  IDiag  1:
 E= -215.049955091120     Delta-E=       -0.000000000486 Rises=F Damp=F
 DIIS: error= 5.83D-07 at cycle   4 NSaved=   4.
 NSaved= 4 IEnMin= 4 EnMin= -215.049955091120     IErMin= 4 ErrMin= 5.83D-07
 ErrMax= 5.83D-07  0.00D+00 EMaxC= 1.00D-01 BMatC= 5.84D-11 BMatP= 9.12D-10
 IDIUse=1 WtCom= 1.00D+00 WtEn= 0.00D+00
 Coeff-Com:  0.452D-02 0.404D-01 0.268D+00 0.687D+00
 Coeff:      0.452D-02 0.404D-01 0.268D+00 0.687D+00
 Gap=     0.317 Goal=   None    Shift=    0.000
 RMSDP=4.31D-08 MaxDP=7.03D-07 DE=-4.86D-10 OVMax= 1.65D-06

 Cycle  11  Pass 1  IDiag  1:
 E= -215.049955091159     Delta-E=       -0.000000000039 Rises=F Damp=F
 DIIS: error= 3.05D-07 at cycle   5 NSaved=   5.
 NSaved= 5 IEnMin= 5 EnMin= -215.049955091159     IErMin= 5 ErrMin= 3.05D-07
 ErrMax= 3.05D-07  0.00D+00 EMaxC= 1.00D-01 BMatC= 5.09D-12 BMatP= 5.84D-11
 IDIUse=1 WtCom= 1.00D+00 WtEn= 0.00D+00
 Coeff-Com: -0.401D-02 0.736D-02 0.884D-01 0.327D+00 0.581D+00
 Coeff:     -0.401D-02 0.736D-02 0.884D-01 0.327D+00 0.581D+00
 Gap=     0.317 Goal=   None    Shift=    0.000
 RMSDP=1.16D-08 MaxDP=2.59D-07 DE=-3.88D-11 OVMax= 4.64D-07

 Cycle  12  Pass 1  IDiag  1:
 E= -215.049955091163     Delta-E=       -0.000000000004 Rises=F Damp=F
 DIIS: error= 2.71D-08 at cycle   6 NSaved=   6.
 NSaved= 6 IEnMin= 6 EnMin= -215.049955091163     IErMin= 6 ErrMin= 2.71D-08
 ErrMax= 2.71D-08  0.00D+00 EMaxC= 1.00D-01 BMatC= 8.47D-14 BMatP= 5.09D-12
 IDIUse=1 WtCom= 1.00D+00 WtEn= 0.00D+00
 Coeff-Com: -0.143D-02 0.204D-02 0.247D-01 0.999D-01 0.202D+00 0.673D+00
 Coeff:     -0.143D-02 0.204D-02 0.247D-01 0.999D-01 0.202D+00 0.673D+00
 Gap=     0.317 Goal=   None    Shift=    0.000
 RMSDP=1.93D-09 MaxDP=3.87D-08 DE=-4.09D-12 OVMax= 9.46D-08

 SCF Done:  E(RB3LYP) =  -215.049955091     A.U. after   12 cycles
            NFock= 12  Conv=0.19D-08     -V/T= 2.0055
 KE= 2.138771629644D+02 PE=-6.674683400451D+02 EE= 1.592353594676D+02
 Leave Link  502 at Sun Sep 07 19:47:37 2025, MaxMem=  1073741824 cpu:               8.0 elap:               8.2
 (Enter C:\G16W\l508.exe)
 QCSCF skips out because SCF is already converged.
 Leave Link  508 at Sun Sep 07 19:47:38 2025, MaxMem=  1073741824 cpu:               1.0 elap:               0.3
 (Enter C:\G16W\l801.exe)
 DoSCS=F DFT=T ScalE2(SS,OS)=  1.000000  1.000000
 ExpMin= 1.03D-01 ExpMax= 1.95D+04 ExpMxC= 6.65D+02 IAcc=3 IRadAn=         5 AccDes= 0.00D+00
 HarFok:  IExCor=  205 AccDes= 0.00D+00 IRadAn=         5 IDoV=-2 UseB2=F ITyADJ=14
 ICtDFT= 12500011 ScaDFX=  1.000000  1.000000  1.000000  1.000000
 Largest valence mixing into a core orbital is  6.99D-05
 Largest core mixing into a valence orbital is  7.84D-06
 Range of M.O.s used for correlation:     4   132
 NBasis=   132 NAE=    13 NBE=    13 NFC=     3 NFV=     0
 NROrb=    129 NOA=    10 NOB=    10 NVA=   119 NVB=   119

 **** Warning!!: The largest alpha MO coefficient is  0.10018790D+02

 Leave Link  801 at Sun Sep 07 19:47:38 2025, MaxMem=  1073741824 cpu:               0.0 elap:               0.4
 (Enter C:\G16W\l914.exe)
 RHF ground state
 Keep R1, R2, and R3 ints in memory in canonical form, NReq=173413717.
 FoFCou: FMM=F IPFlag=           0 FMFlag=           0 FMFlg1=           0
         NFxFlg=           0 DoJE=F BraDBF=F KetDBF=F FulRan=T
         wScrn=  0.000000 ICntrl=       600 IOpCl=  0 I1Cent=           0 NGrid=           0
         NMat0=    1 NMatS0=   8778 NMatT0=    0 NMatD0=    1 NMtDS0=    0 NMtDT0=    0
 Symmetry not used in FoFCou.
 Two-electron integral symmetry not used.
 MDV=  1073741824 DFT=T DoStab=F Mixed=T DoRPA=T DoScal=F NonHer=T
 Making orbital integer symmetry assigments:
    20 initial guesses have been made.
 Convergence on wavefunction:    0.001000000000000
 Davidson Disk Diagonalization:  ConvIn= 1.00D-03 SkipCon=T Conv= 1.00D-03.
 Max sub-space:  2000 roots to seek:    20 dimension of matrix:         2380
 Iteration     1 Dimension    20 NMult     0 NNew     20
 CISAX will form    20 AO SS matrices at one time.
 NMat=    20 NSing=    20 JSym2X= 0.
 New state      3 was old state      6
 New state      5 was old state      3
 Excitation Energies [eV] at current iteration:
 Root      1 :     7.266395376376240
 Root      2 :     8.654488761720126
 Root      3 :     9.599616761624221
 Root      4 :     9.690652978089382
 Root      5 :     9.828468481500190
 Root      6 :     9.836778516886975
 Root      7 :    10.746638699265190
 Root      8 :    10.900471131150400
 Root      9 :    11.047449898356580
 Root     10 :    11.192155330329460
 Root     11 :    11.728679996341590
 Root     12 :    11.785215966403470
 Root     13 :    11.817090013189230
 Root     14 :    12.051615923663030
 Root     15 :    12.262426503611950
 Root     16 :    12.531560175802050
 Root     17 :    12.806751544827740
 Root     18 :    13.310772608420130
 Root     19 :    13.594916254801320
 Root     20 :    14.268706899702470
 Iteration     2 Dimension    60 NMult    20 NNew     40
 CISAX will form    40 AO SS matrices at one time.
 NMat=    40 NSing=    40 JSym2X= 0.
 Root      1 not converged, maximum delta is    0.011509993814741
 Root      2 not converged, maximum delta is    0.013821909013357
 Root      3 not converged, maximum delta is    0.020867668224543
 Root      4 not converged, maximum delta is    0.064333442975134
 Root      5 not converged, maximum delta is    0.072178670282110
 Excitation Energies [eV] at current iteration:
 Root      1 :     7.226362804031986   Change is   -0.040032572344254
 Root      2 :     8.602150143650144   Change is   -0.052338618069982
 Root      3 :     9.553481588207166   Change is   -0.046135173417054
 Root      4 :     9.607482919180498   Change is   -0.083170058908883
 Root      5 :     9.685252030201033   Change is   -0.143216451299158
 Root      6 :     9.813911534602500   Change is   -0.022866982284475
 Root      7 :    10.600599895199790   Change is   -0.146038804065403
 Root      8 :    10.878957373709190   Change is   -0.021513757441211
 Root      9 :    10.952631844825920   Change is   -0.094818053530654
 Root     10 :    11.017192448557610   Change is   -0.174962881771847
 Root     11 :    11.682713712934620   Change is   -0.102502253468847
 Root     12 :    11.691021558741990   Change is   -0.037658437599591
 Root     13 :    11.733113141383840   Change is   -0.083976871805388
 Root     14 :    11.833996934726840   Change is   -0.217618988936186
 Root     15 :    11.994321709439340   Change is   -0.268104794172609
 Root     16 :    12.513084665793010   Change is   -0.018475510009041
 Root     17 :    12.647408432495070   Change is   -0.159343112332665
 Root     18 :    13.256168784096310   Change is   -0.054603824323821
 Root     19 :    13.536260462435690   Change is   -0.058655792365630
 Root     20 :    13.562592215292930   Change is   -0.706114684409538
 Iteration     3 Dimension    70 NMult    60 NNew     10
 CISAX will form    10 AO SS matrices at one time.
 NMat=    10 NSing=    10 JSym2X= 0.
 Root      1 has converged.
 Root      2 has converged.
 Root      3 not converged, maximum delta is    0.001182918216314
 Root      4 not converged, maximum delta is    0.002154995089056
 Root      5 not converged, maximum delta is    0.003119163656022
 Excitation Energies [eV] at current iteration:
 Root      1 :     7.225889749261446   Change is   -0.000473054770539
 Root      2 :     8.601317001287830   Change is   -0.000833142362313
 Root      3 :     9.552641556969935   Change is   -0.000840031237232
 Root      4 :     9.605660000634718   Change is   -0.001822918545780
 Root      5 :     9.682089011436048   Change is   -0.003163018764984
 Iteration     4 Dimension    76 NMult    70 NNew      6
 CISAX will form     6 AO SS matrices at one time.
 NMat=     6 NSing=     6 JSym2X= 0.
 Root      1 has converged.
 Root      2 has converged.
 Root      3 has converged.
 Root      4 has converged.
 Root      5 has converged.
 Excitation Energies [eV] at current iteration:
 Root      1 :     7.225888807781542   Change is   -0.000000941479904
 Root      2 :     8.601316480302820   Change is   -0.000000520985010
 Root      3 :     9.552580232737832   Change is   -0.000061324232103
 Root      4 :     9.605567627743424   Change is   -0.000092372891295
 Root      5 :     9.681947561192985   Change is   -0.000141450243064
 Convergence achieved on expansion vectors.
 ***********************************************************************
 Excited states from <AA,BB:AA,BB> singles matrix:
 ***********************************************************************
 
 1PDM for each excited state written to RWF  633
 Ground to excited state transition densities written to RWF  633
 Ground to excited state transition electric dipole moments (Au):
       state          X           Y           Z        Dip. S.      Osc.
         1        -0.0003     -0.0010     -0.0529      0.0028      0.0005
         2         0.0009      0.0001     -0.5550      0.3080      0.0649
         3        -0.0096     -0.0075      0.2521      0.0637      0.0149
         4         0.3478      0.2442      0.0050      0.1807      0.0425
         5        -0.3313     -0.1634     -0.0034      0.1364      0.0324
 Ground to excited state transition velocity dipole moments (Au):
       state          X           Y           Z        Dip. S.      Osc.
         1         0.0001      0.0004     -0.0221      0.0005      0.0012
         2        -0.0003     -0.0001      0.1853      0.0343      0.0724
         3         0.0038      0.0029     -0.1020      0.0104      0.0198
         4        -0.1377     -0.0991     -0.0021      0.0288      0.0544
         5         0.1255      0.0429      0.0014      0.0176      0.0330
 Ground to excited state transition magnetic dipole moments (Au):
       state          X           Y           Z
         1        -0.0456     -0.7539     -0.0012
         2         0.4769      0.4725     -0.0001
         3         0.5882     -0.0901     -0.0090
         4        -0.1484      0.2240      0.4355
         5         0.0697     -0.2035      0.4591
 Ground to excited state transition velocity quadrupole moments (Au):
       state          XX          YY          ZZ          XY          XZ          YZ
         1        -0.0009      0.0004      0.0727     -0.0015      0.4829      0.0446
         2         0.0015     -0.0004     -0.6118      0.0006     -0.2823      0.1925
         3        -0.0250      0.0004      0.3429     -0.0102      0.3238     -0.1732
         4         0.9745     -0.0581     -0.1332      0.4626      0.2353      0.1602
         5        -0.5921     -0.0691      0.5071      0.3277     -0.2135     -0.0685
 <0|del|b> * <b|rxdel|0> + <0|del|b> * <b|delr+rdel|0>
 Rotatory Strengths (R) in cgs (10**-40 erg-esu-cm/Gauss)
       state          XX          YY          ZZ    R(velocity)    E-M Angle
         1        -0.5048     -0.0102     -0.1374     -0.2175       90.84
         2         0.0492     -0.3637     -0.0997     -0.1381       90.09
         3         0.7480      1.4673      3.5978      1.9377       87.28
         4        -0.7889     -1.5668     -3.0120     -1.7892       91.77
         5         1.5440      0.3387     -0.5376      0.4484       89.42
 1/2[<0|r|b>*<b|rxdel|0> + (<0|rxdel|b>*<b|r|0>)*]
 Rotatory Strengths (R) in cgs (10**-40 erg-esu-cm/Gauss)
       state          XX          YY          ZZ     R(length)
         1        -0.0081     -0.5238     -0.0435     -0.1918
         2        -0.3075     -0.0245     -0.0584     -0.1301
         3         3.9974     -0.4804      1.6101      1.7090
         4        36.5048    -38.6954     -1.5326     -1.2411
         5        16.3211    -23.5098      1.0946     -2.0314
  1/2[<0|del|b>*<b|r|0> + (<0|r|b>*<b|del|0>)*] (Au)
       state          X           Y           Z        Dip. S.   Osc.(frdel)
         1         0.0000      0.0000      0.0012     -0.0012     -0.0008
         2         0.0000      0.0000     -0.1028      0.1028      0.0685
         3         0.0000      0.0000     -0.0257      0.0258      0.0172
         4        -0.0479     -0.0242      0.0000      0.0721      0.0481
         5        -0.0416     -0.0070      0.0000      0.0486      0.0324

 Excitation energies and oscillator strengths:
 
 Excited state symmetry could not be determined.
 Excited State   1:      Singlet-?Sym    7.2259 eV  171.58 nm  f=0.0005  <S**2>=0.000
      13 -> 14         0.70206
 This state for optimization and/or second-order correction.
 Total Energy, E(TD-HF/TD-DFT) =  -214.784408564    
 Copying the excited state density for this state as the 1-particle RhoCI density.
 
 Excited state symmetry could not be determined.
 Excited State   2:      Singlet-?Sym    8.6013 eV  144.15 nm  f=0.0649  <S**2>=0.000
      13 -> 15         0.69579
 
 Excited state symmetry could not be determined.
 Excited State   3:      Singlet-?Sym    9.5526 eV  129.79 nm  f=0.0149  <S**2>=0.000
      11 -> 14        -0.14224
      13 -> 17         0.68448
 
 Excited state symmetry could not be determined.
 Excited State   4:      Singlet-?Sym    9.6056 eV  129.08 nm  f=0.0425  <S**2>=0.000
      12 -> 14         0.55165
      13 -> 16        -0.42917
 
 Excited state symmetry could not be determined.
 Excited State   5:      Singlet-?Sym    9.6819 eV  128.06 nm  f=0.0324  <S**2>=0.000
      10 -> 14        -0.11284
      12 -> 14         0.41279
      13 -> 16         0.55300
 SavETr:  write IOETrn=   770 NScale= 10 NData=  16 NLR=1 NState=    5 LETran=     100.
 Leave Link  914 at Sun Sep 07 19:47:55 2025, MaxMem=  1073741824 cpu:              17.0 elap:              16.9
 (Enter C:\G16W\l601.exe)
 Copying SCF densities to generalized density rwf, IOpCl= 0 IROHF=0.

 **********************************************************************

            Population analysis using the SCF Density.

 **********************************************************************

 Alpha  occ. eigenvalues --  -24.67367 -19.14802 -10.30449  -1.21264  -1.04614
 Alpha  occ. eigenvalues --   -0.69107  -0.56226  -0.51969  -0.50780  -0.40590
 Alpha  occ. eigenvalues --   -0.38005  -0.37765  -0.29593
 Alpha virt. eigenvalues --    0.02073   0.06541   0.09659   0.10983   0.16540
 Alpha virt. eigenvalues --    0.31470   0.32524   0.32858   0.37784   0.40768
 Alpha virt. eigenvalues --    0.41603   0.46638   0.53380   0.53457   0.62560
 Alpha virt. eigenvalues --    0.65624   0.65643   0.70692   0.72355   0.84567
 Alpha virt. eigenvalues --    0.88193   0.95191   0.97764   1.01251   1.03619
 Alpha virt. eigenvalues --    1.08726   1.11340   1.14884   1.22445   1.26437
 Alpha virt. eigenvalues --    1.27232   1.33817   1.44347   1.65361   1.70870
 Alpha virt. eigenvalues --    1.80721   1.82025   1.92502   2.03230   2.06255
 Alpha virt. eigenvalues --    2.11489   2.18422   2.22456   2.26637   2.33804
 Alpha virt. eigenvalues --    2.40934   2.48440   2.58929   2.77438   2.84495
 Alpha virt. eigenvalues --    2.86649   2.88484   2.94496   2.98119   3.03244
 Alpha virt. eigenvalues --    3.06170   3.07081   3.24246   3.30389   3.33284
 Alpha virt. eigenvalues --    3.35645   3.37603   3.41712   3.42973   3.47282
 Alpha virt. eigenvalues --    3.54291   3.65823   3.65876   3.75497   3.76401
 Alpha virt. eigenvalues --    3.82254   3.92344   3.98688   4.00218   4.04194
 Alpha virt. eigenvalues --    4.07922   4.25202   4.29375   4.36277   4.58459
 Alpha virt. eigenvalues --    4.62369   4.65679   4.69453   4.81240   4.83573
 Alpha virt. eigenvalues --    4.94286   4.99441   5.01691   5.13435   5.35319
 Alpha virt. eigenvalues --    5.46775   5.64630   5.74161   5.92824   5.97625
 Alpha virt. eigenvalues --    6.08253   6.44070   6.58684   6.60868   6.65039
 Alpha virt. eigenvalues --    6.82444   6.84708   6.89599   6.90535   7.03105
 Alpha virt. eigenvalues --    7.05519   7.09155   7.29520   7.29930   7.32514
 Alpha virt. eigenvalues --    7.42991   8.37444   8.38173   8.84400   8.84819
 Alpha virt. eigenvalues --    8.98928  11.06916  11.39461  12.32891
          Condensed to atoms (all electrons):
               1          2          3          4          5          6
     1  C    4.280433   0.372567   0.372478   0.354990   0.358379  -0.011686
     2  H    0.372567   0.834244  -0.117640  -0.048296  -0.062120  -0.003117
     3  H    0.372478  -0.117640   0.834289  -0.048403  -0.062063  -0.003073
     4  F    0.354990  -0.048296  -0.048403   9.002574  -0.046310   0.003770
     5  O    0.358379  -0.062120  -0.062063  -0.046310   7.797826   0.311558
     6  H   -0.011686  -0.003117  -0.003073   0.003770   0.311558   0.508568
 Mulliken charges:
               1
     1  C    0.272838
     2  H    0.024362
     3  H    0.024412
     4  F   -0.218324
     5  O   -0.297269
     6  H    0.193981
 Sum of Mulliken charges =   0.00000
 Mulliken charges with hydrogens summed into heavy atoms:
               1
     1  C    0.321612
     4  F   -0.218324
     5  O   -0.103288
 Electronic spatial extent (au):  <R**2>=            511.0926
 Charge=              0.0000 electrons
 Dipole moment (field-independent basis, Debye):
    X=              0.0707    Y=              2.9981    Z=              0.0049  Tot=              2.9989
 Quadrupole moment (field-independent basis, Debye-Ang):
   XX=            -17.7052   YY=            -19.4029   ZZ=            -17.1850
   XY=             -6.1324   XZ=             -0.0782   YZ=             -2.6150
 Traceless Quadrupole moment (field-independent basis, Debye-Ang):
   XX=              0.3925   YY=             -1.3052   ZZ=              0.9127
   XY=             -6.1324   XZ=             -0.0782   YZ=             -2.6150
 Octapole moment (field-independent basis, Debye-Ang**2):
  XXX=             84.5995  YYY=             34.8026  ZZZ=             45.0345  XYY=             29.1101
  XXY=             26.8070  XXZ=             15.5224  XZZ=             29.2149  YZZ=             12.6613
  YYZ=             16.9535  XYZ=              5.3458
 Hexadecapole moment (field-independent basis, Debye-Ang**3):
 XXXX=           -349.2034 YYYY=            -97.3114 ZZZZ=           -100.0104 XXXY=            -86.0094
 XXXZ=            -74.0872 YYYX=            -41.6172 YYYZ=            -30.4039 ZZZX=            -76.4515
 ZZZY=            -29.1971 XXYY=            -73.1710 XXZZ=            -80.6850 YYZZ=            -34.0310
 XXYZ=            -23.3866 YYXZ=            -25.4394 ZZXY=            -17.1096
 N-N= 7.930586252197D+01 E-N=-6.674683421841D+02  KE= 2.138771629644D+02
 Leave Link  601 at Sun Sep 07 19:47:55 2025, MaxMem=  1073741824 cpu:               0.0 elap:               0.4
 (Enter C:\G16W\l9999.exe)
 Electronic transition elements 
                 1             2             3             4             5 
      1  -0.214784D+03 -0.214734D+03 -0.214699D+03 -0.214697D+03 -0.214694D+03
      2  -0.251185D-03  0.911787D-03 -0.960991D-02  0.347829D+00 -0.331253D+00
      3  -0.982548D-03  0.732754D-04 -0.753951D-02  0.244229D+00 -0.163370D+00
      4  -0.528823D-01 -0.554981D+00  0.252074D+00  0.497593D-02 -0.337146D-02
      5   0.794498D-04 -0.277641D-03  0.378939D-02 -0.137709D+00  0.125502D+00
      6   0.354182D-03 -0.532537D-04  0.293888D-02 -0.990632D-01  0.428741D-01
      7  -0.220813D-01  0.185269D+00 -0.102030D+00 -0.211663D-02  0.143170D-02
      8  -0.456364D-01  0.476919D+00  0.588216D+00 -0.148410D+00  0.696737D-01
      9  -0.753910D+00  0.472511D+00 -0.901036D-01  0.224048D+00 -0.203496D+00
     10  -0.116287D-02 -0.148757D-03 -0.903231D-02  0.435532D+00  0.459100D+00
     11  -0.856687D-03  0.151312D-02 -0.250400D-01  0.974479D+00 -0.592091D+00
     12   0.403158D-03 -0.351572D-03  0.449529D-03 -0.581357D-01 -0.691372D-01
     13   0.727415D-01 -0.611773D+00  0.342919D+00 -0.133228D+00  0.507130D+00
     14  -0.150638D-02  0.603164D-03 -0.101686D-01  0.462649D+00  0.327673D+00
     15   0.482865D+00 -0.282342D+00  0.323818D+00  0.235289D+00 -0.213461D+00
     16   0.445695D-01  0.192482D+00 -0.173173D+00  0.160185D+00 -0.684575D-01
 1|1|UNPC-DESKTOP-SI45VP7|SP|RB3LYP TD-FC|CC-pVTZ|C1H3F1O1|DOG OF ROMAN
 |07-Sep-2025|0||#p B3LYP/cc-pVTZ TD=(NStates=5,WhenReduce=2) Geom=AllC
 heck SCF=XQC NoSymm||CFH2OH optimization||0,1|C,0,-1.3066294056,-0.270
 3008671,-0.8737785343|H,0,-0.9106813452,0.2106423058,0.0281586149|H,0,
 -0.9101619247,0.2102879225,-1.7756757693|F,0,-0.8787712633,-1.56886041
 55,-0.8734855001|O,0,-2.7019425584,-0.3147934851,-0.8741440886|H,0,-3.
 0455119328,0.5840431794,-0.8712262325||Version=EM64W-G16RevB.01|HF=-21
 5.0499551|RMSD=1.932e-009|PG=C01 [X(C1H3F1O1)]||@


 CONTRAIWISE...CONTINUED TWEEDLEDEE, IF IT WAS SO, IT MIGHT BE,
 AND IF IT WERE SO, IT WOULD BE.....
 BUT AS IT ISN'T, IT AIN'T....
 THAT'S LOGIC.....
 ALICE THROUGH THE LOOKING GLASS
 Job cpu time:       0 days  0 hours  0 minutes 32.0 seconds.
 Elapsed time:       0 days  0 hours  0 minutes 31.7 seconds.
 File lengths (MBytes):  RWF=    126 Int=      0 D2E=      0 Chk=      5 Scr=      1
 Normal termination of Gaussian 16 at Sun Sep 07 19:47:56 2025.
