[Molden Format]
[Title]
 Molden file created by orca_2mkl for BaseName=C:\orca_jobs\ex1\B3LYP

[Atoms] AU
C    1   6         -0.0548934499        -3.5099469362         0.0063942192 
C    2   6          0.0624163865        -2.1173140863         2.2273430550 
C    3   6          0.1889668393         0.4988917812         2.1098537881 
C    4   6          0.2013697506         1.7703997841        -0.2047284270 
C    5   6          0.0827703898         0.3497170651        -2.4210549425 
C    6   6         -0.0442018567        -2.2650845088        -2.3117089463 
H    7   1         -0.1540194137        -5.5501311282         0.0916031416 
H    8   1          0.0566083787        -3.0388728161         4.0518385733 
H    9   1          0.0929893221         1.3468611193        -4.2066479866 
H   10   1         -0.1355210847        -3.3386461967        -4.0508231043 
O   11   8          0.3229877697         4.3208228891        -0.3922697561 
H   12   1          0.3997241491         5.0374913059         1.2896662371 
Cl  13  17          0.3371598557         2.2945997798         4.8910787203 
[GTO]
  1 0
s   6 1.0 
    13575.3496820000         0.5435905310
     2035.2333680000         1.0145543947
      463.2256235900         1.7315731970
      131.2001959800         2.6910376290
       42.8530158910         3.6044547126
       15.5841857660         3.7025556986
s   2 1.0 
        6.2067138508         1.8383540830
        2.5764896527         0.5447575605
s   1 1.0 
        0.5769633942         0.4718145038
s   1 1.0 
        0.2297283136         0.2364944676
s   1 1.0 
        0.0951644400         0.1221141848
p   4 1.0 
       34.6972322440         1.3596651507
        7.9582622826         1.4512589486
        2.3780826883         1.2709231419
        0.8143320818         0.8025721189
p   1 1.0 
        0.2888754725         0.3018758868
p   1 1.0 
        0.1005682367         0.0807265016
d   1 1.0 
        1.0970000000         3.3522135855
d   1 1.0 
        0.3180000000         0.3838994974
f   1 1.0 
        0.7610000000         3.0840084332

  2 0
s   6 1.0 
    13575.3496820000         0.5435905310
     2035.2333680000         1.0145543947
      463.2256235900         1.7315731970
      131.2001959800         2.6910376290
       42.8530158910         3.6044547126
       15.5841857660         3.7025556986
s   2 1.0 
        6.2067138508         1.8383540830
        2.5764896527         0.5447575605
s   1 1.0 
        0.5769633942         0.4718145038
s   1 1.0 
        0.2297283136         0.2364944676
s   1 1.0 
        0.0951644400         0.1221141848
p   4 1.0 
       34.6972322440         1.3596651507
        7.9582622826         1.4512589486
        2.3780826883         1.2709231419
        0.8143320818         0.8025721189
p   1 1.0 
        0.2888754725         0.3018758868
p   1 1.0 
        0.1005682367         0.0807265016
d   1 1.0 
        1.0970000000         3.3522135855
d   1 1.0 
        0.3180000000         0.3838994974
f   1 1.0 
        0.7610000000         3.0840084332

  3 0
s   6 1.0 
    13575.3496820000         0.5435905310
     2035.2333680000         1.0145543947
      463.2256235900         1.7315731970
      131.2001959800         2.6910376290
       42.8530158910         3.6044547126
       15.5841857660         3.7025556986
s   2 1.0 
        6.2067138508         1.8383540830
        2.5764896527         0.5447575605
s   1 1.0 
        0.5769633942         0.4718145038
s   1 1.0 
        0.2297283136         0.2364944676
s   1 1.0 
        0.0951644400         0.1221141848
p   4 1.0 
       34.6972322440         1.3596651507
        7.9582622826         1.4512589486
        2.3780826883         1.2709231419
        0.8143320818         0.8025721189
p   1 1.0 
        0.2888754725         0.3018758868
p   1 1.0 
        0.1005682367         0.0807265016
d   1 1.0 
        1.0970000000         3.3522135855
d   1 1.0 
        0.3180000000         0.3838994974
f   1 1.0 
        0.7610000000         3.0840084332

  4 0
s   6 1.0 
    13575.3496820000         0.5435905310
     2035.2333680000         1.0145543947
      463.2256235900         1.7315731970
      131.2001959800         2.6910376290
       42.8530158910         3.6044547126
       15.5841857660         3.7025556986
s   2 1.0 
        6.2067138508         1.8383540830
        2.5764896527         0.5447575605
s   1 1.0 
        0.5769633942         0.4718145038
s   1 1.0 
        0.2297283136         0.2364944676
s   1 1.0 
        0.0951644400         0.1221141848
p   4 1.0 
       34.6972322440         1.3596651507
        7.9582622826         1.4512589486
        2.3780826883         1.2709231419
        0.8143320818         0.8025721189
p   1 1.0 
        0.2888754725         0.3018758868
p   1 1.0 
        0.1005682367         0.0807265016
d   1 1.0 
        1.0970000000         3.3522135855
d   1 1.0 
        0.3180000000         0.3838994974
f   1 1.0 
        0.7610000000         3.0840084332

  5 0
s   6 1.0 
    13575.3496820000         0.5435905310
     2035.2333680000         1.0145543947
      463.2256235900         1.7315731970
      131.2001959800         2.6910376290
       42.8530158910         3.6044547126
       15.5841857660         3.7025556986
s   2 1.0 
        6.2067138508         1.8383540830
        2.5764896527         0.5447575605
s   1 1.0 
        0.5769633942         0.4718145038
s   1 1.0 
        0.2297283136         0.2364944676
s   1 1.0 
        0.0951644400         0.1221141848
p   4 1.0 
       34.6972322440         1.3596651507
        7.9582622826         1.4512589486
        2.3780826883         1.2709231419
        0.8143320818         0.8025721189
p   1 1.0 
        0.2888754725         0.3018758868
p   1 1.0 
        0.1005682367         0.0807265016
d   1 1.0 
        1.0970000000         3.3522135855
d   1 1.0 
        0.3180000000         0.3838994974
f   1 1.0 
        0.7610000000         3.0840084332

  6 0
s   6 1.0 
    13575.3496820000         0.5435905310
     2035.2333680000         1.0145543947
      463.2256235900         1.7315731970
      131.2001959800         2.6910376290
       42.8530158910         3.6044547126
       15.5841857660         3.7025556986
s   2 1.0 
        6.2067138508         1.8383540830
        2.5764896527         0.5447575605
s   1 1.0 
        0.5769633942         0.4718145038
s   1 1.0 
        0.2297283136         0.2364944676
s   1 1.0 
        0.0951644400         0.1221141848
p   4 1.0 
       34.6972322440         1.3596651507
        7.9582622826         1.4512589486
        2.3780826883         1.2709231419
        0.8143320818         0.8025721189
p   1 1.0 
        0.2888754725         0.3018758868
p   1 1.0 
        0.1005682367         0.0807265016
d   1 1.0 
        1.0970000000         3.3522135855
d   1 1.0 
        0.3180000000         0.3838994974
f   1 1.0 
        0.7610000000         3.0840084332

  7 0
s   3 1.0 
       34.0613410000         0.2556299169
        5.1235746000         0.4613599649
        1.1646626000         0.6811214941
s   1 1.0 
        0.3272304100         0.3083545312
s   1 1.0 
        0.1030724100         0.1296483265
p   1 1.0 
        0.8000000000         1.0784563492

  8 0
s   3 1.0 
       34.0613410000         0.2556299169
        5.1235746000         0.4613599649
        1.1646626000         0.6811214941
s   1 1.0 
        0.3272304100         0.3083545312
s   1 1.0 
        0.1030724100         0.1296483265
p   1 1.0 
        0.8000000000         1.0784563492

  9 0
s   3 1.0 
       34.0613410000         0.2556299169
        5.1235746000         0.4613599649
        1.1646626000         0.6811214941
s   1 1.0 
        0.3272304100         0.3083545312
s   1 1.0 
        0.1030724100         0.1296483265
p   1 1.0 
        0.8000000000         1.0784563492

 10 0
s   3 1.0 
       34.0613410000         0.2556299169
        5.1235746000         0.4613599649
        1.1646626000         0.6811214941
s   1 1.0 
        0.3272304100         0.3083545312
s   1 1.0 
        0.1030724100         0.1296483265
p   1 1.0 
        0.8000000000         1.0784563492

 11 0
s   6 1.0 
    27032.3826310000         0.8598581479
     4052.3871392000         1.6055305368
      922.3272271000         2.7458778516
      261.2407098900         4.2987674426
       85.3546413510         5.8797663284
       31.0350352450         6.3163983216
s   2 1.0 
       12.2608607280         2.9812147522
        4.9987076005         0.9419559635
s   1 1.0 
        1.1703108158         0.8019291610
s   1 1.0 
        0.4647474099         0.4011648062
s   1 1.0 
        0.1850453636         0.2010799406
p   4 1.0 
       63.2749548010         3.0572017144
       14.6270493790         3.3844839414
        4.4501223456         2.9474262132
        1.5275799647         1.7118271494
p   1 1.0 
        0.5293511794         0.6436057926
p   1 1.0 
        0.1747842127         0.1610897254
d   1 1.0 
        2.3140000000        12.3767310624
d   1 1.0 
        0.6450000000         1.3234257612
f   1 1.0 
        1.4280000000        12.7097950062

 12 0
s   3 1.0 
       34.0613410000         0.2556299169
        5.1235746000         0.4613599649
        1.1646626000         0.6811214941
s   1 1.0 
        0.3272304100         0.3083545312
s   1 1.0 
        0.1030724100         0.1296483265
p   1 1.0 
        0.8000000000         1.0784563492

 13 0
s   7 1.0 
    69507.9909450000         1.5699431111
    10426.1568800000         2.9253830754
     2373.2334061000         4.9572399459
      671.5642007100         7.5356200335
      218.4199979000         9.4975278458
       77.5722497140         8.2979906229
       28.8888152770         3.1497777986
s   3 1.0 
      127.1052718500         3.0469726290
       39.3395829610         5.4155185167
        7.6740679989        -4.0393583511
s   2 1.0 
        3.8745627630         1.3245601070
        1.8385832573         0.3933642951
s   1 1.0 
        0.5022905754         0.4252324164
s   1 1.0 
        0.1796272342         0.1966478622
p   5 1.0 
      666.5042328400        16.1722725881
      157.6424169000        21.3099281439
       50.2625209780        23.5834931812
       18.5360781050        19.6517184011
        7.2940532777        10.5384461303
p   1 1.0 
        2.9433248995         5.4952549157
p   1 1.0 
        1.0404970818         1.4979288007
p   1 1.0 
        0.3845641508         0.4316692212
p   1 1.0 
        0.1306964273         0.1120133363
d   2 1.0 
        4.6100000000         7.5524217504
        1.0110000000         2.6539585854
d   1 1.0 
        0.3390000000         0.4293579962
f   1 1.0 
        0.7060000000         2.6050175686

[5D]
[7F]
[9G]
[MO]
 Sym=     1a
 Ene= -1.01539753243874E+02
 Spin= Alpha
 Occup= 1.000000
  1       0.000003668601
  2      -0.000010748679
  3      -0.000225793228
  4       0.002044750383
  5       0.006332399267
  6      -0.000002583150
  7      -0.000036730640
  8      -0.000035186995
  9       0.000092175363
 10       0.001351840206
 11       0.001159864777
 12       0.000109618576
 13       0.001860195956
 14       0.000801407350
 15       0.000036159363
 16       0.000002961202
 17       0.000023589720
 18      -0.000019958731
 19       0.000002486295
 20      -0.000101974867
 21       0.000027718641
 22       0.000525148733
 23      -0.000255743808
 24       0.000036927218
 25      -0.000001825046
 26       0.000002584318
 27       0.000030815531
 28      -0.000032941039
 29       0.000005204712
 30       0.000005800931
 31       0.000033016795
 32       0.000002512551
 33      -0.000008276137
 34       0.000195285039
 35      -0.000450726180
 36      -0.008491581426
 37      -0.000003449574
 38      -0.000030487297
 39      -0.000089291360
 40       0.000127773355
 41       0.001663787281
 42       0.002096179772
 43       0.000043499911
 44      -0.001043031306
 45       0.004369614450
 46       0.000033116095
 47      -0.000001055521
 48      -0.000040451555
 49       0.000012543368
 50      -0.000002123625
 51      -0.001002448363
 52      -0.000008328064
 53       0.000429159329
 54      -0.000378624476
 55       0.000046723292
 56      -0.000001348324
 57       0.000004224464
 58       0.000031791358
 59      -0.000076927520
 60       0.000009435480
 61       0.000006016146
 62       0.000026342312
 63      -0.000013959782
 64       0.000047521758
 65      -0.000034381066
 66      -0.004066933597
 67       0.011026563873
 68      -0.000006629798
 69      -0.000068743325
 70      -0.000152479384
 71       0.000042059710
 72       0.000060759444
 73       0.001818091813
 74      -0.000256617394
 75      -0.002470508050
 76      -0.006225054142
 77      -0.000103400535
 78      -0.000012301636
 79      -0.000156677720
 80       0.000031538601
 81      -0.000006544450
 82       0.000724848227
 83       0.000140211666
 84       0.002492489278
 85       0.000460060967
 86       0.000008675263
 87       0.000054339316
 88       0.000011953025
 89       0.000105105481
 90      -0.000116127393
 91       0.000015884121
 92       0.000007827696
 93       0.000031780908
 94       0.000004616346
 95      -0.000015276844
 96       0.000122614633
 97       0.001127426610
 98      -0.009978144503
 99      -0.000003497304
100      -0.000037188325
101      -0.000076051762
102       0.000072434473
103       0.000177805202
104       0.002926762693
105       0.000163425695
106       0.003804467913
107      -0.001100618430
108      -0.000039333288
109      -0.000000317487
110       0.000005885904
111      -0.000042934435
112       0.000004357934
113       0.001323239970
114      -0.000009023311
115      -0.000832514505
116       0.000830366368
117      -0.000100297077
118       0.000082537197
119       0.000006183500
120       0.000025304609
121      -0.000014912181
122       0.000001739536
123      -0.000002646777
124      -0.000020567971
125       0.000005465900
126      -0.000016707411
127      -0.000090586699
128       0.001346817968
129       0.005329199545
130      -0.000001097772
131      -0.000004398479
132      -0.000038240751
133       0.000042758276
134       0.000208398626
135       0.001469932484
136      -0.000012212882
137      -0.000838705651
138       0.001331335875
139       0.000017244398
140       0.000002706961
141       0.000031014166
142      -0.000024708142
143       0.000003128056
144       0.000554637091
145       0.000016432635
146      -0.000002464638
147       0.000213741116
148      -0.000021136044
149       0.000037013921
150       0.000003421838
151       0.000013143508
152      -0.000021641909
153       0.000002535116
154      -0.000000065438
155      -0.000004575810
156       0.000005461941
157      -0.000017976560
158       0.000192514432
159       0.000168721029
160      -0.004153491202
161       0.000001506206
162       0.000016981537
163       0.000030023412
164      -0.000005900272
165      -0.000039953061
166      -0.000178091724
167      -0.000088996081
168      -0.001216852749
169      -0.001306871734
170       0.000011255579
171       0.000001198329
172       0.000011491605
173      -0.000008383414
174       0.000001096433
175      -0.000187049727
176      -0.000024525761
177      -0.000349267327
178       0.000001478888
179      -0.000007899379
180      -0.000003365297
181      -0.000000098897
182       0.000007522047
183       0.000008248121
184      -0.000000723181
185      -0.000001138880
186      -0.000006024845
187       0.000011228092
188       0.000102360574
189       0.000079047112
190       0.000002540268
191       0.000039789923
192       0.000025099193
193       0.000074196285
194       0.000054724605
195      -0.001215340701
196      -0.000000431183
197      -0.000006234107
198      -0.000004312100
199       0.000009114584
200       0.000097394833
201      -0.000020760489
202       0.000001774448
203       0.000012601340
204       0.000051922689
205       0.000040520545
206       0.000104435346
207      -0.000429262867
208       0.000000424320
209       0.000003570030
210       0.000012177782
211      -0.000005310924
212       0.000019167785
213      -0.000190240255
214       0.000875335942
215      -0.000353044961
216       0.000000169208
217       0.000007824894
218      -0.000010719278
219      -0.000010795740
220      -0.000272934806
221       0.000118527991
222       0.000003737497
223      -0.000063445180
224       0.000292935952
225      -0.000003892594
226       0.000000435789
227       0.000009950737
228      -0.000005683592
229       0.000000799162
230       0.000002740529
231      -0.000001461387
232      -0.000048226885
233      -0.000027685275
234       0.000001656943
235       0.000005329444
236       0.000000903143
237       0.000007074426
238      -0.000006082506
239       0.000001226094
240       0.000002269221
241       0.000014131865
242       0.000021688600
243      -0.000241566989
244      -0.000039671971
245       0.000003853086
246       0.000056248919
247       0.000038849183
248      -1.000294604374
249       0.032552627838
250       0.010792948316
251      -0.004278818311
252       0.003180078886
253       0.000003478583
254       0.000038788280
255       0.000073662705
256      -0.000001441805
257      -0.000015224282
258      -0.000031377436
259      -0.000007491713
260      -0.000091679594
261      -0.000142899934
262       0.000048414558
263       0.000585351279
264       0.000920880747
265      -0.000031172168
266      -0.000410630254
267      -0.000523556918
268      -0.000053049650
269      -0.000006297560
270      -0.000075168072
271       0.000030326394
272      -0.000004633396
273      -0.000245805924
274      -0.000028580484
275      -0.000365116664
276       0.000064221636
277      -0.000014200729
278       0.000012976872
279       0.000010874988
280       0.000167169195
281      -0.000056670276
282       0.000011106889
283       0.000000530992
284      -0.000006687623
 Sym=     1a
 Ene= -1.91654168517736E+01
 Spin= Alpha
 Occup= 1.000000
  1      -0.000008896049
  2       0.000044674323
  3      -0.000840346315
  4       0.002300138742
  5       0.002603573271
  6      -0.000003530344
  7      -0.000079680259
  8       0.000018672635
  9       0.000004767381
 10       0.000426386858
 11      -0.000744324381
 12       0.000102540040
 13       0.001610175011
 14       0.001039695564
 15       0.000014762506
 16       0.000000018651
 17       0.000006513000
 18       0.000039918862
 19      -0.000003829907
 20       0.000089612408
 21       0.000003869692
 22      -0.000294879180
 23      -0.000681624723
 24       0.000061165130
 25      -0.000031523839
 26       0.000001788445
 27       0.000062614529
 28      -0.000009957607
 29       0.000003097225
 30      -0.000000103739
 31      -0.000002395286
 32      -0.000009871718
 33       0.000047266059
 34       0.000872531132
 35      -0.010442771762
 36      -0.005498480135
 37       0.000003869204
 38       0.000074137648
 39       0.000009356588
 40      -0.000310661686
 41      -0.006797246714
 42       0.001144628042
 43       0.000026497808
 44      -0.000014598375
 45       0.001251869655
 46       0.000019231504
 47       0.000000363300
 48       0.000051357838
 49       0.000132952505
 50      -0.000012062587
 51       0.001145300323
 52       0.000029498487
 53       0.000544878322
 54       0.001857706375
 55      -0.000171866584
 56      -0.000012496317
 57       0.000005820017
 58       0.000073767384
 59      -0.000080868096
 60       0.000006588511
 61      -0.000019290167
 62      -0.000143579236
 63      -0.000027181367
 64       0.000136446559
 65      -0.002369252010
 66       0.009476099898
 67       0.016994143032
 68       0.000007950680
 69       0.000134108010
 70       0.000063674700
 71      -0.000370380954
 72      -0.007779165055
 73       0.000617038677
 74      -0.000229414092
 75      -0.001643446472
 76      -0.006842825994
 77       0.000050300204
 78      -0.000003058790
 79      -0.000045780268
 80       0.000126722323
 81      -0.000013596031
 82      -0.001219919959
 83       0.000080648443
 84       0.001302254626
 85      -0.002857850506
 86       0.000311171210
 87      -0.000071406520
 88      -0.000000488797
 89       0.000133998549
 90       0.000093962951
 91      -0.000008356240
 92      -0.000022585111
 93      -0.000134823952
 94      -0.000039750938
 95       0.000211600710
 96       0.001524114724
 97      -0.002929647439
 98      -0.018254546466
 99      -0.000002697143
100      -0.000059512793
101       0.000013181728
102      -0.000400878626
103      -0.008352433380
104       0.000507023926
105       0.000722232307
106       0.016230504698
107      -0.003588257379
108       0.000165977111
109       0.000002608932
110       0.000076681859
111       0.000339638460
112      -0.000031895716
113       0.003610695676
114       0.000047112886
115       0.000467217794
116       0.005118683518
117      -0.000495779083
118      -0.000005967730
119       0.000014013159
120       0.000253037402
121      -0.000053102596
122      -0.000005720834
123      -0.000105473240
124      -0.000717459036
125      -0.000019891691
126       0.000100021390
127      -0.001778045673
128       0.006409997472
129       0.014814417174
130       0.000001743128
131       0.000078434909
132      -0.000097865145
133      -0.000270293491
134      -0.005433811026
135      -0.000072802512
136      -0.000224471067
137      -0.006734492555
138       0.004934276390
139       0.000040638530
140       0.000001660718
141       0.000042059765
142       0.000087471172
143      -0.000007718733
144      -0.000654469231
145      -0.000057209500
146      -0.001551883398
147      -0.002004144054
148       0.000164604045
149       0.000049559448
150       0.000008634030
151       0.000054890050
152      -0.000090461734
153       0.000009593360
154      -0.000004825284
155      -0.000047961058
156      -0.000008641334
157       0.000041458922
158       0.000651612401
159      -0.008651371402
160      -0.008659019655
161       0.000001385399
162       0.000035158632
163      -0.000016576808
164      -0.000245936066
165      -0.004402559525
166      -0.001278193726
167      -0.000127585155
168      -0.002840819539
169       0.000606410468
170      -0.000006933612
171      -0.000004119517
172      -0.000033625624
173       0.000098996239
174      -0.000010521502
175       0.000658698235
176       0.000002415770
177       0.000114786686
178       0.001279611608
179      -0.000124468244
180       0.000001776248
181       0.000001722695
182       0.000080622965
183       0.000067881817
184      -0.000006083013
185      -0.000013488479
186      -0.000078563759
187      -0.000076779586
188      -0.000567897041
189       0.000679756414
190      -0.000005569358
191      -0.000105772950
192      -0.000015372845
193      -0.000087168244
194      -0.000038427266
195       0.000386618258
196      -0.000002296414
197      -0.000045567275
198      -0.000000722850
199      -0.000119461811
200      -0.000513321806
201       0.001824196092
202      -0.000009289344
203      -0.000100716110
204      -0.000198744147
205      -0.000083306930
206      -0.000078526849
207       0.000744432550
208      -0.000001691595
209      -0.000024390580
210      -0.000021078629
211      -0.435107004454
212      -0.639437062912
213      -0.037244013195
214       0.032220518196
215      -0.014114533975
216       0.000040204441
217       0.001516776501
218      -0.001428252412
219      -0.000232006934
220      -0.005870304106
221       0.002391938371
222       0.000023843768
223       0.000598257209
224      -0.000222871656
225       0.000002527088
226      -0.000008357244
227      -0.000049124086
228       0.000240223256
229      -0.000025101425
230      -0.000297751252
231       0.000036014155
232       0.000143621324
233      -0.001665402403
234       0.000169113668
235       0.000079546492
236       0.000023517655
237       0.000288466077
238      -0.000111620876
239       0.000017584539
240      -0.000019884484
241      -0.000155776135
242      -0.000848333699
243      -0.001150178850
244       0.000524616605
245       0.000039871286
246       0.000374597522
247       0.000878730264
248      -0.000021292310
249       0.000045231193
250       0.000125400938
251      -0.000232875515
252       0.000241193422
253      -0.000000324178
254      -0.000005847461
255      -0.000001299814
256       0.000001637510
257       0.000026465131
258       0.000014140583
259      -0.000006016771
260      -0.000075672252
261      -0.000103722810
262       0.000019788008
263       0.000189898690
264       0.000483087628
265      -0.000016225044
266      -0.000430648827
267       0.000234790311
268      -0.000029182087
269      -0.000000750389
270       0.000013830929
271       0.000015023500
272      -0.000001166374
273      -0.000251408844
274      -0.000013126650
275      -0.000086888070
276      -0.000018364978
277      -0.000000100051
278       0.000075386220
279       0.000005700348
280       0.000049952885
281       0.000020377119
282       0.000000164329
283       0.000002243631
284       0.000018575944
 Sym=     1a
 Ene= -1.02507024417301E+01
 Spin= Alpha
 Occup= 1.000000
  1      -0.000083335441
  2       0.000034674350
  3      -0.001140474388
  4      -0.001212835663
  5      -0.017754584938
  6      -0.000008771300
  7      -0.000179957182
  8       0.000005667195
  9      -0.000067362556
 10      -0.000951584440
 11      -0.000935529539
 12      -0.000278698366
 13      -0.006290280321
 14       0.001474511994
 15      -0.000046358041
 16      -0.000003017722
 17       0.000000715816
 18       0.000058075784
 19      -0.000005714593
 20      -0.001385937613
 21      -0.000046649231
 22      -0.000292848549
 23      -0.000927705913
 24       0.000085392689
 25      -0.000029247043
 26      -0.000003364678
 27      -0.000056864424
 28      -0.000028452159
 29       0.000000304500
 30      -0.000002019488
 31      -0.000018463717
 32      -0.000013570354
 33       0.000041022889
 34       0.000866634606
 35      -0.011218624055
 36       0.027449577324
 37       0.000011884309
 38       0.000264413733
 39      -0.000054809462
 40      -0.000513888458
 41      -0.011092685285
 42       0.001546057771
 43       0.000213967677
 44       0.006317185227
 45      -0.004489024504
 46       0.000011718265
 47      -0.000004841151
 48      -0.000045167584
 49       0.000139360622
 50      -0.000014812839
 51       0.002022570361
 52       0.000159685747
 53       0.002743286030
 54       0.002379175949
 55      -0.000175015133
 56      -0.000052029311
 57      -0.000004921177
 58      -0.000124259317
 59      -0.000117273907
 60      -0.000000163377
 61      -0.000037840839
 62      -0.000275159580
 63       0.009290056219
 64       0.012395351583
 65      -0.001704699964
 66       0.019441185554
 67      -0.033632986632
 68       0.000016712016
 69       0.000397893968
 70      -0.000135994753
 71      -0.000457827413
 72      -0.008890071202
 73      -0.000854908688
 74       0.000760232663
 75       0.012197892535
 76       0.007251512900
 77      -0.000157252840
 78      -0.000005661716
 79       0.000068518607
 80       0.000141890050
 81      -0.000012629261
 82      -0.003308389061
 83       0.000118223633
 84       0.003212791293
 85      -0.003847914159
 86       0.000451053528
 87       0.000380192454
 88      -0.000008266425
 89      -0.000766242092
 90      -0.000273146067
 91      -0.000008617803
 92      -0.000043054209
 93      -0.000337289414
 94       0.466778507924
 95       0.607956732053
 96       0.041664285331
 97      -0.026078230229
 98       0.042116623621
 99       0.000024159372
100       0.000396237191
101       0.000229756296
102       0.000113040583
103       0.003037064075
104      -0.001717908190
105      -0.001167286876
106      -0.021036233055
107      -0.005826022835
108       0.000616962025
109       0.000052692844
110      -0.000132125058
111      -0.001633576417
112       0.000158984036
113      -0.002470548472
114      -0.000067273308
115       0.000644271796
116       0.000252982466
117      -0.000011664219
118       0.000067363567
119      -0.000065744484
120      -0.001259831190
121       0.000209817521
122      -0.000037812367
123       0.000141484008
124       0.000988314370
125       0.001760659419
126       0.002552439945
127      -0.001665381911
128       0.014938622139
129      -0.040033731239
130       0.000018998412
131       0.000357682819
132       0.000058381022
133      -0.000400605921
134      -0.007654923439
135      -0.000987504022
136      -0.000129216632
137       0.002976635519
138      -0.012663712152
139      -0.000227135362
140      -0.000025989253
141      -0.000289848293
142       0.000139207141
143      -0.000020166005
144      -0.002568805276
145      -0.000203878925
146      -0.003450551883
147      -0.002924842100
148       0.000214187771
149      -0.000155994777
150      -0.000064441160
151      -0.000820434707
152       0.000443605486
153      -0.000079837002
154      -0.000052282491
155      -0.000268323426
156      -0.000034996337
157      -0.000006683544
158       0.000820008238
159      -0.010421691421
160       0.023199328887
161       0.000010557407
162       0.000221129905
163      -0.000020214245
164      -0.000462555454
165      -0.009015141031
166      -0.000750163841
167       0.000313479128
168       0.003540145951
169       0.006297515419
170      -0.000042103610
171      -0.000003603723
172       0.000002159175
173       0.000095678813
174      -0.000009455264
175       0.001937044888
176      -0.000019706714
177      -0.000962911683
178       0.002075256462
179      -0.000226875147
180       0.000020788583
181      -0.000004940395
182      -0.000096989836
183       0.000032011355
184      -0.000012314820
185      -0.000031974088
186      -0.000207759393
187      -0.000121364816
188      -0.001257110662
189      -0.000678912695
190      -0.000008314788
191      -0.000172902088
192       0.000014973706
193      -0.000122562200
194      -0.000404381234
195       0.000193851914