
                                 *****************
                                 * O   R   C   A *
                                 *****************

                                            #,                                       
                                            ###                                      
                                            ####                                     
                                            #####                                    
                                            ######                                   
                                           ########,                                 
                                     ,,################,,,,,                         
                               ,,#################################,,                 
                          ,,##########################################,,             
                       ,#########################################, ''#####,          
                    ,#############################################,,   '####,        
                  ,##################################################,,,,####,       
                ,###########''''           ''''###############################       
              ,#####''   ,,,,##########,,,,          '''####'''          '####       
            ,##' ,,,,###########################,,,                        '##       
           ' ,,###''''                  '''############,,,                           
         ,,##''                                '''############,,,,        ,,,,,,###''
      ,#''                                            '''#######################'''  
     '                                                          ''''####''''         
             ,#######,   #######,   ,#######,      ##                                
            ,#'     '#,  ##    ##  ,#'     '#,    #''#        ,####,    ,#,          
            ##       ##  ##   ,#'  ##            #'  '#       #'       ,# #          
            ##       ##  #######   ##           ,######,      #####,      #          
            '#,     ,#'  ##    ##  '#,     ,#' ,#      #,     #,   #      #          
             '#######'   ##     ##  '#######'  #'      '#     '####' #    #          



                #########################################################
                #                        -***-                          #
                #          Department of theory and spectroscopy        #
                #                                                       #
                #                      Frank Neese                      #
                #                                                       #
                #     Directorship, Architecture, Infrastructure        #
                #                    SHARK, DRIVERS                     #
                #        Core code/Algorithms in most modules           #
                #                                                       #
                #        Max Planck Institute fuer Kohlenforschung      #
                #                Kaiser Wilhelm Platz 1                 #
                #                 D-45470 Muelheim/Ruhr                 #
                #                      Germany                          #
                #                                                       #
                #                  All rights reserved                  #
                #                        -***-                          #
                #########################################################


                         Program Version 6.1.0  -  RELEASE   -


 With contributions from (in alphabetic order):
[Max-Planck-Institut fuer Kohlenforschung]                               
  Daniel Aravena         : Magnetic Suceptibility                        
  Michael Atanasov       : Ab Initio Ligand Field Theory (pilot matlab implementation)
  Alexander A. Auer      : GIAO ZORA, VPT2 properties, NMR spectrum      
  Ute Becker             : All parallelization in ORCA, NUMFREQ, NUMCALC 
  Giovanni Bistoni       : ED, misc. LED, open-shell LED, HFLD           
  Dmytro Bykov           : pre 5.0 version of the SCF Hessian            
  Marcos Casanova-Páez   : Triplet and SCS-CIS(D). UHF-(DLPNO)-IP/EA/STEOM-CCSD. UHF-CVS-IP/STEOM-CCSD   
  Vijay G. Chilkuri      : MRCI spin determinant printing, contributions to CSF-ICE 
  Pauline Colinet        : FMM embedding                                 
  Dipayan Datta          : RHF DLPNO-CCSD density                        
  Achintya Kumar Dutta   : EOM-CC, STEOM-CC                              
  Nicolas Foglia         : Exact transition moments, OPA infrastructure, MCD improvements    
  Dmitry Ganyushin       : Spin-Orbit,Spin-Spin,Magnetic field MRCI      
  Miquel Garcia-Rates    : C-PCM and meta-GGA Hessian, CCSD/C-PCM, Gaussian charge scheme 
  Tiago L. C. Gouveia    : GS-ROHF, GS-ROCIS                             
  Yang Guo               : DLPNO-NEVPT2, F12-NEVPT2, CIM, IAO-localization        
  Andreas Hansen         : Spin unrestricted coupled pair/coupled cluster methods 
  Ingolf Harden          : AUTO-CI MPn and infrastructure                
  Benjamin Helmich-Paris : MC-RPA, TRAH-(SCF,CASSCF), AVAS, COSX integrals, SCF dyn. polar., MC-PDFT, srDFT 
  Lee Huntington         : MR-EOM, pCC                                   
  Robert Izsak           : Overlap fitted RIJCOSX, COSX-SCS-MP3, EOM     
  Riya Kayal             : Wick's Theorem for AUTO-CI, AUTO-CI UHF-CCSDT 
  Emily Kempfer          : AUTO-CI RHF CISDT and CCSDT, approximate NEVPT4
  Christian Kollmar      : KDIIS, OOCD, Brueckner-CCSD(T), CCSD density, CASPT2, CASPT2-K, improved NEVPT2 
  Axel Koslowski         : Symmetry handling                             
  Simone Kossmann        : meta-GGA functionals, TD-DFT gradient, OOMP2, (MP2 Hessian; deprecated post 5.0) 
  Lucas Lang             : DCDCAS, Hyperfine gauge corrections, ICE-SOC+SSC
  Marvin Lechner         : AUTO-CI (C++ implementation), FIC-MRCC        
  Spencer Leger          : CASSCF response                               
  Dagmar Lenk            : GEPOL surface, SMD, ORCA-2-JSON               
  Dimitrios Liakos       : Extrapolation schemes; Compound Job, Property file
  Dimitrios Manganas     : Further ROCIS development; embedding schemes. LFT, Crystal Embedding 
  Dimitrios Pantazis     : SARC Basis sets                               
  Anastasios Papadopoulos: AUTO-CI, single reference methods and gradients 
  Taras Petrenko         : pre 6.0 DFT Hessian and TD-DFT gradient,  ECA, NRVS 
  Petra Pikulova         : Analytic Raman intensities                    
  Peter Pinski           : DLPNO-MP2, DLPNO-MP2 Gradient                 
  Shashank Vittal Rao    : ES-AILFT, MagRelax                            
  Christoph Reimann      : Effective Core Potentials                     
  Marius Retegan         : Local ZFS, SOC                                
  Christoph Riplinger    : Optimizer, TS searches, QM/MM, DLPNO-CCSD(T), (RO)-DLPNO pert. Triples 
  Michael Roemelt        : Original ROCIS implementation, recursive CI coupling coefficients
  Masaaki Saitow         : Open-shell DLPNO-CCSD energy and density      
  Barbara Sandhoefer     : DKH picture change effects                    
  Yorick L. A. Schmerwitz: GMF and freeze-and-release deltaSCF, NEB S-IDPP initial path                    
  Kantharuban Sivalingam : CASSCF convergence/infrastructure, NEVPT2, NEVPT3, NEVPT4(SD), FIC-MRCI and CEPA variants
  Bernardo de Souza      : ESD, SOC TD-DFT                               
  Georgi L. Stoychev     : AutoAux, RI-MP2 NMR, DLPNO-MP2 response, X2C  
  Van Anh Tran           : RI-MP2 g-tensors                              
  Willem Van den Heuvel  : Paramagnetic NMR                              
  Zikuan Wang            : NOTCH, Electric field optimization            
  Frank Wennmohs         : Technical directorship and infrastructure     
  Hang Xu                : AUTO-CI-Response properties                   
                                                                         
[FACCTs GmbH]                                                            
  Markus Bursch, Nicolas Foglia, Miquel Garcia-Rates, Ingolf Harden, Hagen Neugebauer, Anastasios Papadopoulos, 
  Christoph Riplinger, Bernardo de Souza, Georgi L. Stoychev                                                    
                                                                 
  APM, various basis sets, CI-OPT, improved COSX, DLPNO-Multilevel,           
  DOCKER, DRACO, updates on ESD, Fragmentator, GOAT, IRC, LR-CPCM, L-BFGS, MBIS, meta-GGA TD-DFT gradient, ML-optimized integration grids, 
  MM, NACMEs, nearIR, NEB, NEB-TS, NL-DFT gradient (VV10), 2- and 3-layer-ONIOM, interface openCOSMO-RS, QMMM,   
  Crystal-QMMM, RESP, rigid body optimization, SF, symmetry and pop. for TD-DFT, various functionals, SOLVATOR                                   
                                                                         
[Other institutions]                                                     
  V. Asgeirsson          : NEB                                           
  Christoph Bannwarth    : sTDA-DFT, sTD-DFT, PBEh-3c, B97-3c, D3        
  Giovanni Bistoni       : ETS/NOCV, ADLD/ADEX, COVALED                  
  Martin Brehm           : Molecular dynamics                            
  Ronald Cardenas        : ETS/NOCV                                      
  Martina Colucci        : COVALED                                       
  Sebastian Ehlert       : rSCAN, r2SCAN, r2SCAN-3c, D4, dhf basis sets  
  Marvin Friede          : D4 for Fr, Ra, Ac-Lr                          
  Lars Goerigk           : TD-DFT with DH, B97 family of functionals     
  Stefan Grimme          : VdW corrections, initial TS optimization, DFT functionals, gCP, sTDA/sTD-DF 
  Waldemar Hujo          : DFT-NL                                        
  H. Jonsson             : NEB                                           
  Holger Kruse           : gCP                                           
  Marcel Mueller         : wB97X-3c, vDZP basis set                      
  Hagen Neugebauer       : wr2SCAN, Native XTB                           
  Gianluca Regni         : ADLD/ADEX                                     
  Tobias Risthaus        : pre 6.0 range-separated hybrid DFT and stability analysis
  Lukas Wittmann         : regularized MP2, r2SCAN double-hybrids, wr2SCAN        
                                                                         
We gratefully acknowledge several colleagues who have allowed us to      
interface, adapt or use parts of their codes:                            
  Ed Valeev, F. Pavosevic, A. Kumar             : LibInt (2-el integral package), F12 methods 
  Garnet Chan, S. Sharma, J. Yang, R. Olivares  : DMRG                   
  Ulf Ekstrom                                   : XCFun DFT Library      
  Mihaly Kallay                                 : mrcc  (arbitrary order and MRCC methods)
  Frank Weinhold                                : gennbo (NPA and NBO analysis)           
  Simon Mueller                                 : openCOSMO-RS                            
  Christopher J. Cramer and Donald G. Truhlar   : smd solvation model                     
  S Lehtola, MJT Oliveira, MAL Marques          : LibXC Library                           
  Liviu Ungur et al                             : ANISO software                          


 Your calculation uses the libint2 library for the computation of 2-el integrals
 For citations please refer to: http://libint.valeyev.net

 Your ORCA version has been built with support for libXC version: 7.0.0
 For citations please refer to: https://libxc.gitlab.io

 This ORCA versions uses:
   CBLAS   interface :  Fast vector & matrix operations
   LAPACKE interface :  Fast linear algebra routines
   Shared memory     :  Shared parallel matrices


  ***********************************
  * Starting time: Thu Sep 11 17:29:20 2025
  * Host name:     DESKTOP-SI45VP7
  * Process ID:    34828
  * Working dir.:  C:\orca_jobs\ex1
  ***********************************

NOTE: MaxCore=2500 MB was set to SCF,MP2,MDCI,CIPSI,MRCI,RASCI and CIS
      => If you want to overwrite this, your respective input block should be placed after the MaxCore statement
================================================================================

----- Orbital basis set information -----
Your calculation utilizes the basis: def2-TZVP
   F. Weigend and R. Ahlrichs, Phys. Chem. Chem. Phys. 7, 3297 (2005).

----- AuxJ basis set information -----
Your calculation utilizes the auxiliary basis: def2/J
   H-Rn: F. Weigend, Phys. Chem. Chem. Phys. 8, 1057 (2006).
   Fr-Lr: K. Eichkorn, F. Weigend, O. Treutler, R. Ahlrichs; Theor. Chem. Acc. 97, 119 (1997).

================================================================================
                                        WARNINGS
                       Please study these warnings very carefully!
================================================================================


WARNING: Geometry Optimization
  ===> : Switching off AutoStart
         For restart on a previous wavefunction, please use MOREAD

================================================================================
                                       INPUT FILE
================================================================================
NAME = C:\orca_jobs\ex1\B3LYP.INP
|  1> ! UKS B3LYP def2-TZVP RIJCOSX def2/J Opt Freq TightSCF
|  2> 
|  3> %pal 
|  4>   nprocs 20
|  5> end
|  6> %maxcore 2500
|  7> 
|  8> %scf
|  9>   MaxIter   1000
| 10> end
| 11> 
| 12> %output
| 13>   Print[P_Mulliken] 1
| 14>   Print[P_Loewdin] 1
| 15>   XYZFile true
| 16> end
| 17> 
| 18> 
| 19> * xyz 0 1
| 20> C      0.02296308   -1.85996995    0.00000000
| 21> C      0.00798067   -1.16244008    1.20816295
| 22> C     -0.02331454    0.23192082    1.20824560
| 23> C     -0.03844324    0.92941901    0.00000000
| 24> C     -0.02331454    0.23192082   -1.20824560
| 25> C      0.00798067   -1.16244008   -1.20816295
| 26> H      0.04718689   -2.95931340    0.00000000
| 27> H      0.01953870   -1.71237863    2.16035820
| 28> H     -0.03575925    0.78177634   -2.16050635
| 29> H      0.01953870   -1.71237863   -2.16035820
| 30> O     -0.07045338    2.35906064    0.00000000
| 31> H      0.82708134    2.69969202    0.00000000
| 32> Cl    -0.04323187    1.11194551    2.73230591
| 33> *
| 34> 
| 35> 
| 36>                          ****END OF INPUT****
================================================================================

                       *****************************
                       * Geometry Optimization Run *
                       *****************************

Geometry optimization settings:
Update method            Update   .... BFGS
Choice of coordinates    CoordSys .... (2022) Redundant Internals
Initial Hessian          InHess   .... Almloef's Model
Max. no of cycles        MaxIter  .... 50

Convergence Tolerances:
Energy Change            TolE     ....  5.0000e-06 Eh
Max. Gradient            TolMAXG  ....  3.0000e-04 Eh/bohr
RMS Gradient             TolRMSG  ....  1.0000e-04 Eh/bohr
Max. Displacement        TolMAXD  ....  4.0000e-03 bohr
RMS Displacement         TolRMSD  ....  2.0000e-03 bohr
Strict Convergence                .... False

------------------------------------------------------------------------------
                        ORCA OPTIMIZATION COORDINATE SETUP
------------------------------------------------------------------------------

The optimization will be done in redundant internal coordinates (2022)
Making redundant internal coordinates   ...  (2022 redundants) done
Evaluating the initial hessian          ...  (Almloef) done
Evaluating the coordinates              ...  done
Calculating the B-matrix                .... done
Calculating the G-matrix                .... done
The number of degrees of freedom        ....   58

    -----------------------------------------------------------------
                    Redundant Internal Coordinates


    -----------------------------------------------------------------
         Definition                    Initial Value    Approx d2E/dq
    -----------------------------------------------------------------
      1. B(C   1,C   0)                  1.3951         0.613098   
      2. B(C   2,C   1)                  1.3947         0.614074   
      3. B(C   3,C   2)                  1.3952         0.612969   
      4. B(C   4,C   3)                  1.3952         0.612969   
      5. B(C   5,C   4)                  1.3947         0.614074   
      6. B(C   5,C   0)                  1.3951         0.613098   
      7. B(H   6,C   0)                  1.0996         0.347609   
      8. B(H   7,C   1)                  1.0997         0.347551   
      9. B(H   8,C   4)                  1.0997         0.347519   
     10. B(H   9,C   5)                  1.0997         0.347551   
     11. B(O  10,C   3)                  1.4300         0.483123   
     12. B(H  11,O  10)                  0.9600         0.519958   
     13. B(Cl 12,C   2)                  1.7600         0.360100   
     14. A(C   1,C   0,C   5)          119.9888         0.432322   
     15. A(C   1,C   0,H   6)          120.0056         0.350146   
     16. A(C   5,C   0,H   6)          120.0056         0.350146   
     17. A(C   0,C   1,C   2)          120.0090         0.432445   
     18. A(C   2,C   1,H   7)          120.0106         0.350230   
     19. A(C   0,C   1,H   7)          119.9804         0.350136   
     20. A(C   3,C   2,Cl 12)          119.9877         0.410906   
     21. A(C   1,C   2,Cl 12)          120.0128         0.411037   
     22. A(C   1,C   2,C   3)          119.9995         0.432429   
     23. A(C   2,C   3,O  10)          120.0029         0.411606   
     24. A(C   2,C   3,C   4)          119.9942         0.432289   
     25. A(C   4,C   3,O  10)          120.0029         0.411606   
     26. A(C   5,C   4,H   8)          120.0128         0.350225   
     27. A(C   3,C   4,H   8)          119.9877         0.350118   
     28. A(C   3,C   4,C   5)          119.9995         0.432429   
     29. A(C   4,C   5,H   9)          120.0106         0.350230   
     30. A(C   0,C   5,H   9)          119.9804         0.350136   
     31. A(C   0,C   5,C   4)          120.0090         0.432445   
     32. A(C   3,O  10,H  11)          109.5000         0.354684   
     33. D(H   7,C   1,C   0,C   5)    179.9847         0.025976   
     34. D(H   7,C   1,C   0,H   6)     -0.0520         0.025976   
     35. D(C   2,C   1,C   0,H   6)   -179.9729         0.025976   
     36. D(C   2,C   1,C   0,C   5)      0.0638         0.025976   
     37. D(Cl 12,C   2,C   1,C   0)    179.9619         0.026063   
     38. D(C   3,C   2,C   1,C   0)     -0.0568         0.026063   
     39. D(C   3,C   2,C   1,H   7)   -179.9777         0.026063   
     40. D(Cl 12,C   2,C   1,H   7)      0.0410         0.026063   
     41. D(O  10,C   3,C   2,Cl 12)     -0.0151         0.025964   
     42. D(O  10,C   3,C   2,C   1)   -179.9964         0.025964   
     43. D(C   4,C   3,C   2,Cl 12)   -179.9688         0.025964   
     44. D(C   4,C   3,C   2,C   1)      0.0499         0.025964   
     45. D(H   8,C   4,C   3,C   2)    179.9688         0.025964   
     46. D(C   5,C   4,C   3,O  10)    179.9964         0.025964   
     47. D(C   5,C   4,C   3,C   2)     -0.0499         0.025964   
     48. D(H   8,C   4,C   3,O  10)      0.0151         0.025964   
     49. D(H   9,C   5,C   4,H   8)     -0.0410         0.026063   
     50. D(C   0,C   5,C   4,H   8)   -179.9619         0.026063   
     51. D(C   0,C   5,C   4,C   3)      0.0568         0.026063   
     52. D(H   9,C   5,C   0,H   6)      0.0520         0.025976   
     53. D(H   9,C   5,C   0,C   1)   -179.9847         0.025976   
     54. D(H   9,C   5,C   4,C   3)    179.9777         0.026063   
     55. D(C   4,C   5,C   0,H   6)    179.9729         0.025976   
     56. D(C   4,C   5,C   0,C   1)     -0.0638         0.025976   
     57. D(H  11,O  10,C   3,C   4)    -90.0232         0.016748   
     58. D(H  11,O  10,C   3,C   2)     90.0232         0.016748   
    -----------------------------------------------------------------

Number of atoms                         .... 13
Number of degrees of freedom            .... 58


         *************************************************************
         *                GEOMETRY OPTIMIZATION CYCLE   1            *
         *************************************************************
---------------------------------
CARTESIAN COORDINATES (ANGSTROEM)
---------------------------------
  C      0.022963   -1.859970    0.000000
  C      0.007981   -1.162440    1.208163
  C     -0.023315    0.231921    1.208246
  C     -0.038443    0.929419    0.000000
  C     -0.023315    0.231921   -1.208246
  C      0.007981   -1.162440   -1.208163
  H      0.047187   -2.959313    0.000000
  H      0.019539   -1.712379    2.160358
  H     -0.035759    0.781776   -2.160506
  H      0.019539   -1.712379   -2.160358
  O     -0.070453    2.359061    0.000000
  H      0.827081    2.699692    0.000000
  Cl    -0.043232    1.111946    2.732306

----------------------------
CARTESIAN COORDINATES (A.U.)
----------------------------
  NO LB      ZA    FRAG     MASS         X           Y           Z
   0 C     6.0000    0    12.011    0.043394   -3.514834    0.000000
   1 C     6.0000    0    12.011    0.015081   -2.196693    2.283097
   2 C     6.0000    0    12.011   -0.044058    0.438267    2.283253
   3 C     6.0000    0    12.011   -0.072647    1.756347    0.000000
   4 C     6.0000    0    12.011   -0.044058    0.438267   -2.283253
   5 C     6.0000    0    12.011    0.015081   -2.196693   -2.283097
   6 H     1.0000    0     1.008    0.089170   -5.592292    0.000000
   7 H     1.0000    0     1.008    0.036923   -3.235927    4.082485
   8 H     1.0000    0     1.008   -0.067575    1.477343   -4.082765
   9 H     1.0000    0     1.008    0.036923   -3.235927   -4.082485
  10 O     8.0000    0    15.999   -0.133138    4.457979    0.000000
  11 H     1.0000    0     1.008    1.562957    5.101679    0.000000
  12 Cl   17.0000    0    35.453   -0.081696    2.101272    5.163310

--------------------------------
INTERNAL COORDINATES (ANGSTROEM)
--------------------------------
 C      0   0   0     0.000000000000     0.00000000     0.00000000
 C      1   0   0     1.395145191693     0.00000000     0.00000000
 C      2   1   0     1.394712055031   120.00898343     0.00000000
 C      3   2   1     1.395202505924   119.99948733   359.94315105
 C      4   3   2     1.395202505924   119.99421589     0.04987134
 C      5   4   3     1.394712055031   119.99948733   359.95012866
 H      1   2   3     1.099610300983   120.00559839   180.02707121
 H      2   1   3     1.099655305519   119.98041876   179.92089963
 H      5   4   3     1.099680180631   119.98771505   179.96882466
 H      6   5   4     1.099655305519   120.01055052   179.97772457
 O      4   3   2     1.429999943808   120.00288395   180.00355601
 H     11   4   3     0.959999120128   109.50004299    90.02315969
 Cl     3   2   1     1.759999995330   120.01279489   179.96185165

---------------------------
INTERNAL COORDINATES (A.U.)
---------------------------
 C      0   0   0     0.000000000000     0.00000000     0.00000000
 C      1   0   0     2.636442329357     0.00000000     0.00000000
 C      2   1   0     2.635623819687   120.00898343     0.00000000
 C      3   2   1     2.636550637557   119.99948733   359.94315105
 C      4   3   2     2.636550637557   119.99421589     0.04987134
 C      5   4   3     2.635623819687   119.99948733   359.95012866
 H      1   2   3     2.077962322897   120.00559839   180.02707121
 H      2   1   3     2.078047369144   119.98041876   179.92089963
 H      5   4   3     2.078094376293   119.98771505   179.96882466
 H      6   5   4     2.078047369144   120.01055052   179.97772457
 O      4   3   2     2.702308265321   120.00288395   180.00355601
 H     11   4   3     1.814135425847   109.50004299    90.02315969
 Cl     3   2   1     3.325917986876   120.01279489   179.96185165

---------------------
BASIS SET INFORMATION
---------------------
There are 4 groups of distinct atoms

 Group   1 Type C   : 11s6p2d1f contracted to 5s3p2d1f pattern {62111/411/11/1}
 Group   2 Type H   : 5s1p contracted to 3s1p pattern {311/1}
 Group   3 Type O   : 11s6p2d1f contracted to 5s3p2d1f pattern {62111/411/11/1}
 Group   4 Type Cl  : 14s9p3d1f contracted to 5s5p2d1f pattern {73211/51111/21/1}

Atom   0C    basis set group =>   1
Atom   1C    basis set group =>   1
Atom   2C    basis set group =>   1
Atom   3C    basis set group =>   1
Atom   4C    basis set group =>   1
Atom   5C    basis set group =>   1
Atom   6H    basis set group =>   2
Atom   7H    basis set group =>   2
Atom   8H    basis set group =>   2
Atom   9H    basis set group =>   2
Atom  10O    basis set group =>   3
Atom  11H    basis set group =>   2
Atom  12Cl   basis set group =>   4
---------------------------------
AUXILIARY/J BASIS SET INFORMATION
---------------------------------
There are 4 groups of distinct atoms

 Group   1 Type C   : 12s5p4d2f1g contracted to 6s4p3d1f1g pattern {711111/2111/211/2/1}
 Group   2 Type H   : 5s2p1d contracted to 3s1p1d pattern {311/2/1}
 Group   3 Type O   : 12s5p4d2f1g contracted to 6s4p3d1f1g pattern {711111/2111/211/2/1}
 Group   4 Type Cl  : 14s5p5d2f1g contracted to 8s4p3d1f1g pattern {71111111/2111/311/2/1}

Atom   0C    basis set group =>   1
Atom   1C    basis set group =>   1
Atom   2C    basis set group =>   1
Atom   3C    basis set group =>   1
Atom   4C    basis set group =>   1
Atom   5C    basis set group =>   1
Atom   6H    basis set group =>   2
Atom   7H    basis set group =>   2
Atom   8H    basis set group =>   2
Atom   9H    basis set group =>   2
Atom  10O    basis set group =>   3
Atom  11H    basis set group =>   2
Atom  12Cl   basis set group =>   4


           ************************************************************
           *        Program running with 20 parallel MPI-processes    *
           *              working on a common directory               *
           ************************************************************
------------------------------------------------------------------------------
                             ORCA STARTUP CALCULATIONS
                           -- RI-GTO INTEGRALS CHOSEN --
------------------------------------------------------------------------------
------------------------------------------------------------------------------
                   ___                                                        
                  /   \      - P O W E R E D   B Y -                         
                 /     \                                                     
                 |  |  |   _    _      __       _____    __    __             
                 |  |  |  | |  | |    /  \     |  _  \  |  |  /  |          
                  \  \/   | |  | |   /    \    | | | |  |  | /  /          
                 / \  \   | |__| |  /  /\  \   | |_| |  |  |/  /          
                |  |  |   |  __  | /  /__\  \  |    /   |      \           
                |  |  |   | |  | | |   __   |  |    \   |  |\   \          
                \     /   | |  | | |  |  |  |  | |\  \  |  | \   \       
                 \___/    |_|  |_| |__|  |__|  |_| \__\ |__|  \__/        
                                                                              
                      - O R C A' S   B I G   F R I E N D -                    
                                      &                                       
                       - I N T E G R A L  F E E D E R -                       
                                                                              
 v1 FN, 2020, v2 2021, v3 2022-2024                                           
------------------------------------------------------------------------------


----------------------
SHARK INTEGRAL PACKAGE
----------------------

Number of atoms                             ...     13
Number of basis functions                   ...    284
Number of shells                            ...    110
Maximum angular momentum                    ...      3
Integral batch strategy                     ... SHARK/LIBINT Hybrid
RI-J (if used) integral strategy            ... SPLIT-RIJ (Revised 2003 algorithm where possible)
Printlevel                                  ...      1
Contraction scheme used                     ... SEGMENTED contraction
Prescreening option                         ... SCHWARTZ
   Thresh                                   ... 2.500e-11
   Tcut                                     ... 2.500e-12
   Tpresel                                  ... 2.500e-12 
Coulomb Range Separation                    ... NOT USED
Exchange Range Separation                   ... NOT USED
Multipole approximations                    ... NOT USED
Finite Nucleus Model                        ... NOT USED
CABS basis                                  ... NOT available
Auxiliary Coulomb fitting basis             ... AVAILABLE
   # of basis functions in Aux-J            ...    449
   # of shells in Aux-J                     ...    147
   Maximum angular momentum in Aux-J        ...      4
Auxiliary J/K fitting basis                 ... NOT available
Auxiliary Correlation fitting basis         ... NOT available
Auxiliary 'external' fitting basis          ... NOT available

Checking pre-screening integrals            ... done (  0.0 sec) Dimension = 110
   => SHARK Basis and OBASIS are compatible. Storing Pre-screening
Shell pair information
Shell pair cut-off parameter TPreSel        ...   2.5e-12
Total number of shell pairs                 ...      6105
Shell pairs after pre-screening             ...      5590
Total number of primitive shell pairs       ...     19708
Primitive shell pairs kept                  ...     13396
          la=0 lb=0:   1331 shell pairs
          la=1 lb=0:   1557 shell pairs
          la=1 lb=1:    468 shell pairs
          la=2 lb=0:    824 shell pairs
          la=2 lb=1:    476 shell pairs
          la=2 lb=2:    132 shell pairs
          la=3 lb=0:    404 shell pairs
          la=3 lb=1:    236 shell pairs
          la=3 lb=2:    126 shell pairs
          la=3 lb=3:     36 shell pairs

Checking whether 4 symmetric matrices of dimension 284 fit in memory
:Max Core in MB      =   2500.00
 MB in use           =      9.05
 MB left             =   2490.95
 MB needed           =      1.24
 Data fit in memory  = YES
Calculating RI/J V-Matrix + Cholesky decomp.... done (  0.0 sec)
Calculating Nuclear repulsion               ... done (  0.0 sec) ENN=    401.810818027598 Eh

Diagonalization of the overlap matrix:
Smallest eigenvalue                        ... 1.041e-05
Time for diagonalization                   ...    0.004 sec
Threshold for overlap eigenvalues          ... 1.000e-07
Number of eigenvalues below threshold      ... 0
Time for construction of square roots      ...    0.004 sec
Total time needed                          ...    0.013 sec

-------------------
DFT GRID GENERATION
-------------------

General Integration Accuracy     IntAcc      ... 4.388
Radial Grid Type                 RadialGrid  ... OptM3 with GC (2021)
Angular Grid (max. ang.)         AngularGrid ... 4 (Lebedev-302)
Angular grid pruning method      GridPruning ... 4 (adaptive)
Weight generation scheme         WeightScheme... mBecke (2022)
Basis function cutoff            BFCut       ... 1.0000e-11
Integration weight cutoff        WCut        ... 1.0000e-14
Partially contracted basis set               ... off
Rotationally invariant grid construction     ... off
Angular grids for H and He will be reduced by one unit

Total number of grid points                  ...    65626
Total number of batches                      ...     1031
Average number of points per batch           ...       63
Average number of grid points per atom       ...     5048

--------------------
COSX GRID GENERATION
--------------------

GRIDX 1
-------
General Integration Accuracy     IntAcc      ... 3.816
Radial Grid Type                 RadialGrid  ... OptM3 with GC (2021)
Angular Grid (max. ang.)         AngularGrid ... 1 (Lebedev-50)
Angular grid pruning method      GridPruning ... 4 (adaptive)
Weight generation scheme         WeightScheme... mBecke (2022)
Basis function cutoff            BFCut       ... 1.0000e-11
Integration weight cutoff        WCut        ... 1.0000e-14
Partially contracted basis set               ... on
Rotationally invariant grid construction     ... off
Angular grids for H and He will be reduced by one unit

Total number of grid points                  ...     9411
Total number of batches                      ...       79
Average number of points per batch           ...      119
Average number of grid points per atom       ...      724
UseSFitting                                  ... on

GRIDX 2
-------
General Integration Accuracy     IntAcc      ... 4.020
Radial Grid Type                 RadialGrid  ... OptM3 with GC (2021)
Angular Grid (max. ang.)         AngularGrid ... 2 (Lebedev-110)
Angular grid pruning method      GridPruning ... 4 (adaptive)
Weight generation scheme         WeightScheme... mBecke (2022)
Basis function cutoff            BFCut       ... 1.0000e-11
Integration weight cutoff        WCut        ... 1.0000e-14
Partially contracted basis set               ... on
Rotationally invariant grid construction     ... off
Angular grids for H and He will be reduced by one unit

Total number of grid points                  ...    18434
Total number of batches                      ...      150
Average number of points per batch           ...      122
Average number of grid points per atom       ...     1418
UseSFitting                                  ... on

GRIDX 3
-------
General Integration Accuracy     IntAcc      ... 4.338
Radial Grid Type                 RadialGrid  ... OptM3 with GC (2021)
Angular Grid (max. ang.)         AngularGrid ... 3 (Lebedev-194)
Angular grid pruning method      GridPruning ... 4 (adaptive)
Weight generation scheme         WeightScheme... mBecke (2022)
Basis function cutoff            BFCut       ... 1.0000e-11
Integration weight cutoff        WCut        ... 1.0000e-14
Partially contracted basis set               ... on
Rotationally invariant grid construction     ... off
Angular grids for H and He will be reduced by one unit

Total number of grid points                  ...    41229
Total number of batches                      ...      329
Average number of points per batch           ...      125
Average number of grid points per atom       ...     3171
UseSFitting                                  ... on
Grids setup in   0.5 sec
Initializing property integral containers    ... done (  0.0 sec)

SHARK setup successfully completed in   0.6 seconds

Maximum memory used throughout the entire STARTUP-calculation: 21.8 MB


           ************************************************************
           *        Program running with 20 parallel MPI-processes    *
           *              working on a common directory               *
           ************************************************************
-------------------------------------------------------------------------------
                                 ORCA GUESS
                   Start orbitals & Density for SCF / CASSCF
-------------------------------------------------------------------------------

------------
SCF SETTINGS
------------
Hamiltonian:
 Density Functional     Method          .... DFT(GTOs)
 Exchange Functional    Exchange        .... B88
   X-Alpha parameter    XAlpha          ....  0.666667
   Becke's b parameter  XBeta           ....  0.004200
 Correlation Functional Correlation     .... LYP
 LDA part of GGA corr.  LDAOpt          .... VWN-5
 Gradients option       PostSCFGGA      .... off
 Hybrid DFT is turned on
   Fraction HF Exchange ScalHFX         ....  0.200000
   Scaling of DF-GGA-X  ScalDFX         ....  0.720000
   Scaling of DF-GGA-C  ScalDFC         ....  0.810000
   Scaling of DF-LDA-C  ScalLDAC        ....  1.000000
   Perturbative correction              ....  0.000000
   NL short-range parameter             ....  4.800000
 RI-approximation to the Coulomb term is turned on
   Number of AuxJ basis functions       .... 449
   RIJ-COSX (HFX calculated with COS-X)).... on


General Settings:
 Integral files         IntName         .... C:\orca_jobs\ex1\B3LYP
 Hartree-Fock type      HFTyp           .... UHF
 Total Charge           Charge          ....    0
 Multiplicity           Mult            ....    1
 Number of Electrons    NEL             ....   66
 Basis Dimension        Dim             ....  284
 Nuclear Repulsion      ENuc            ....    401.8108180276 Eh

Convergence Acceleration:
 AO-DIIS                CNVDIIS         .... on
   Start iteration      DIISMaxIt       ....    12
   Startup error        DIISStart       ....  0.200000
   # of expansion vecs  DIISMaxEq       ....     5
   Bias factor          DIISBfac        ....   1.050
   Max. coefficient     DIISMaxC        ....  10.000
 MO-DIIS                CNVKDIIS        .... off
 Trust-Rad. Augm. Hess. CNVTRAH         .... auto
   Auto Start mean grad. ratio tolernc. ....  1.125000
   Auto Start start iteration           ....    50
   Auto Start num. interpolation iter.  ....    10
   Max. Number of Micro iterations      ....    24
   Max. Number of Macro iterations      .... Maxiter - #DIIS iter
   Number of Davidson start vectors     ....     2
   Converg. threshold    (grad. norm)   ....   1.000e-05
   Grad. Scal. Fac. for Micro threshold ....   0.100
   Minimum threshold for Micro iter.    ....   1.000e-02
   NR start threshold (gradient norm)   ....   1.000e-04
   Initial trust radius                 ....   0.400
   Minimum AH scaling param. (alpha)    ....   1.000
   Maximum AH scaling param. (alpha)    .... 1000.000
   Quad. conv. algorithm                .... NR
   White noise on init. David. guess    .... on
   Maximum white noise                  ....   0.010
   Pseudo random numbers                .... off
   Inactive MOs                         .... canonical
   Orbital update algorithm             .... Taylor
   Preconditioner                       .... Diag
   Full preconditioner red. dimension   ....   250
 SOSCF                 CNVSOSCF           .... on
   Start iteration     SOSCFMaxIt         ....   150
   Startup grad/error  SOSCFStart         ....  0.003300
   Hessian update      SOSCFHessUp        .... L-BFGS
   Autom. constraints  SOSCFAutoConstrain .... off
 Level Shifting         CNVShift        .... on
   Level shift para.    LevelShift      ....    0.2500
   Turn off err/grad.   ShiftErr        ....    0.0010
 Zerner damping         CNVZerner       .... off
 Static damping         CNVDamp         .... on
   Fraction old density DampFac         ....    0.7000
   Max. Damping (<1)    DampMax         ....    0.9800
   Min. Damping (>=0)   DampMin         ....    0.0000
   Turn off err/grad.   DampErr         ....    0.1000

SCF Procedure:
 Maximum # iterations   MaxIter         ....  1000
 SCF integral mode      SCFMode         .... Direct
   Integral package                     .... SHARK and LIBINT hybrid scheme
 Reset frequency        DirectResetFreq ....    20
 Integral Threshold     Thresh          ....  2.500e-11 Eh
 Primitive CutOff       TCut            ....  2.500e-12 Eh

Convergence Tolerance:
 Convergence Check Mode ConvCheckMode   .... Total+1el-Energy
 Convergence forced     ConvForced      .... 0
 Energy Change          TolE            ....  1.000e-08 Eh
 1-El. energy change                    ....  1.000e-05 Eh
 Orbital Gradient       TolG            ....  1.000e-05
 Orbital Rotation angle TolX            ....  1.000e-05
 DIIS Error             TolErr          ....  5.000e-07

------------------------------
INITIAL GUESS: MODEL POTENTIAL
------------------------------
Loading Hartree-Fock densities                     ... done
Calculating cut-offs                               ... done
Initializing the effective Hamiltonian             ... done
Setting up the integral package (SHARK)            ... done
Starting the Coulomb interaction                   ... done (   0.0 sec)
Making the grid                                    ... done (   0.1 sec)
Mapping shells                                     ... done
Starting the XC term evaluation                    ... done (   0.0 sec)
  promolecular density results
     # of electrons  =     65.996887072
     EX              =    -68.035250651
     EC              =     -2.369501130
     EX+EC           =    -70.404751781
Transforming the Hamiltonian                       ... done (   0.0 sec)
Diagonalizing the Hamiltonian                      ... done (   0.0 sec)
Back transforming the eigenvectors                 ... done (   0.0 sec)
Now organizing SCF variables                       ... done
                      ------------------
                      INITIAL GUESS DONE (   0.2 sec)
                      ------------------
             **** ENERGY FILE WAS UPDATED (C:\orca_jobs\ex1\B3LYP.en.tmp) ****
Finished Guess after   0.3 sec
Maximum memory used throughout the entire GUESS-calculation: 14.0 MB


           ************************************************************
           *        Program running with 20 parallel MPI-processes    *
           *              working on a common directory               *
           ************************************************************

-------------------------------------------------------------------------------------------
                                      ORCA LEAN-SCF
                              memory conserving SCF solver
-------------------------------------------------------------------------------------------

----------------------------------------D-I-I-S--------------------------------------------
Iteration    Energy (Eh)           Delta-E    RMSDP     MaxDP     DIISErr   Damp  Time(sec)
-------------------------------------------------------------------------------------------
               ***  Starting incremental Fock matrix formation  ***
    1    -766.7642376023604811     0.00e+00  5.81e-03  7.76e-02  1.32e-01  0.700   0.7
    2    -766.8564566693264624    -9.22e-02  5.53e-03  8.21e-02  5.64e-02  0.700   0.5
                               ***Turning on AO-DIIS***
    3    -766.8922597003640931    -3.58e-02  2.00e-03  2.54e-02  1.62e-02  0.700   0.5
    4    -766.9134536186288642    -2.12e-02  2.59e-03  2.15e-02  8.27e-03  0.000   0.5
    5    -766.9604321877286566    -4.70e-02  1.58e-03  2.40e-02  4.16e-03  0.000   0.5
                              *** Initializing SOSCF ***
---------------------------------------S-O-S-C-F--------------------------------------
Iteration    Energy (Eh)           Delta-E    RMSDP     MaxDP     MaxGrad    Time(sec)
--------------------------------------------------------------------------------------
    6    -766.9607062421393948    -2.74e-04  4.67e-04  6.77e-03  6.53e-04     0.7
               *** Restarting incremental Fock matrix formation ***
    7    -766.9606998924377876     6.35e-06  4.69e-04  7.02e-03  1.90e-04     0.9
    8    -766.9606976336619937     2.26e-06  9.45e-05  1.46e-03  4.31e-04     1.0
    9    -766.9607030632528222    -5.43e-06  3.15e-05  3.98e-04  5.96e-05     0.7
   10    -766.9607029934575166     6.98e-08  1.17e-05  1.70e-04  8.04e-05     1.3
   11    -766.9607031133411965    -1.20e-07  1.56e-05  1.62e-04  8.15e-06     0.7
   12    -766.9607031199368521    -6.60e-09  5.12e-06  5.97e-05  7.17e-06     0.8
                 **** Energy Check signals convergence ****

               *****************************************************
               *                     SUCCESS                       *
               *           SCF CONVERGED AFTER  12 CYCLES          *
               *****************************************************

Recomputing exchange energy using gridx3       ... done (    0.712 sec)
Old exchange energy                            :    -13.722532115 Eh
New exchange energy                            :    -13.722539390 Eh
Exchange energy change after final integration :     -0.000007275 Eh
Total energy after final integration           :   -766.960710388 Eh
             **** ENERGY FILE WAS UPDATED (C:\orca_jobs\ex1\B3LYP.en.tmp) ****

----------------
TOTAL SCF ENERGY
----------------

Total Energy       :       -766.96071038807133 Eh          -20870.06194 eV

Components:
Nuclear Repulsion  :        401.81081802759792 Eh           10933.82822 eV
Electronic Energy  :      -1168.77152114033470 Eh          -31803.88997 eV
One Electron Energy:      -1848.56502717529384 Eh          -50302.01169 eV
Two Electron Energy:        679.79350603495914 Eh           18498.12173 eV

Virial components:
Potential Energy   :      -1531.71808622703111 Eh          -41680.16811 eV
Kinetic Energy     :        764.75737583895989 Eh           20810.10616 eV
Virial Ratio       :          2.00288108963538

DFT components:
N(Alpha)           :       33.000018835469 electrons
N(Beta)            :       33.000018835469 electrons
N(Total)           :       66.000037670939 electrons
E(X)               :      -54.524913714645 Eh       
E(C)               :       -2.791347026396 Eh       
E(XC)              :      -57.316260741042 Eh       

---------------
SCF CONVERGENCE
---------------

  Last Energy change         ...    6.5957e-09  Tolerance :   1.0000e-08
  Last MAX-Density change    ...    5.9654e-05  Tolerance :   1.0000e-07
  Last RMS-Density change    ...    5.1217e-06  Tolerance :   5.0000e-09
  Last DIIS Error            ...    6.5314e-04  Tolerance :   5.0000e-07
  Last Orbital Gradient      ...    7.1705e-06  Tolerance :   1.0000e-05
  Last Orbital Rotation      ...    7.6547e-06  Tolerance :   1.0000e-05


----------------------
UHF SPIN CONTAMINATION
----------------------

Warning: in a DFT calculation there is little theoretical justification to 
         calculate <S**2> as in Hartree-Fock theory. We will do it anyways
         but you should keep in mind that the values have only limited relevance

Expectation value of <S**2>     :    -0.000000
Ideal value S*(S+1) for S=0.0   :     0.000000
Deviation                       :    -0.000000

----------------
ORBITAL ENERGIES
----------------
                 SPIN UP ORBITALS
  NO   OCC          E(Eh)            E(eV) 
   0   1.0000    -101.525748     -2762.6560 
   1   1.0000     -19.147898      -521.0408 
   2   1.0000     -10.248789      -278.8837 
   3   1.0000     -10.241760      -278.6924 
   4   1.0000     -10.195168      -277.4246 
   5   1.0000     -10.191652      -277.3289 
   6   1.0000     -10.190903      -277.3086 
   7   1.0000     -10.190352      -277.2936 
   8   1.0000      -9.457316      -257.3467 
   9   1.0000      -7.219019      -196.4395 
  10   1.0000      -7.210453      -196.2064 
  11   1.0000      -7.209939      -196.1924 
  12   1.0000      -1.040471       -28.3127 
  13   1.0000      -0.888518       -24.1778 
  14   1.0000      -0.839843       -22.8533 
  15   1.0000      -0.757303       -20.6073 
  16   1.0000      -0.738925       -20.1072 
  17   1.0000      -0.625823       -17.0295 
  18   1.0000      -0.610004       -16.5991 
  19   1.0000      -0.547485       -14.8978 
  20   1.0000      -0.501101       -13.6357 
  21   1.0000      -0.487337       -13.2611 
  22   1.0000      -0.457864       -12.4591 
  23   1.0000      -0.436705       -11.8833 
  24   1.0000      -0.429617       -11.6905 
  25   1.0000      -0.390100       -10.6152 
  26   1.0000      -0.376615       -10.2482 
  27   1.0000      -0.373778       -10.1710 
  28   1.0000      -0.338749        -9.2178 
  29   1.0000      -0.317797        -8.6477 
  30   1.0000      -0.307031        -8.3547 
  31   1.0000      -0.266150        -7.2423 
  32   1.0000      -0.252757        -6.8779 
  33   0.0000      -0.029169        -0.7937 
  34   0.0000      -0.022521        -0.6128 
  35   0.0000       0.011006         0.2995 
  36   0.0000       0.033470         0.9108 
  37   0.0000       0.058493         1.5917 
  38   0.0000       0.074040         2.0147 
  39   0.0000       0.098438         2.6786 
  40   0.0000       0.107831         2.9342 
  41   0.0000       0.124951         3.4001 
  42   0.0000       0.135583         3.6894 
  43   0.0000       0.171381         4.6635 

                 SPIN DOWN ORBITALS
  NO   OCC          E(Eh)            E(eV) 
   0   1.0000    -101.525748     -2762.6560 
   1   1.0000     -19.147898      -521.0408 
   2   1.0000     -10.248789      -278.8837 
   3   1.0000     -10.241760      -278.6924 
   4   1.0000     -10.195168      -277.4246 
   5   1.0000     -10.191652      -277.3289 
   6   1.0000     -10.190903      -277.3086 
   7   1.0000     -10.190352      -277.2936 
   8   1.0000      -9.457316      -257.3467 
   9   1.0000      -7.219019      -196.4395 
  10   1.0000      -7.210453      -196.2064 
  11   1.0000      -7.209939      -196.1924 
  12   1.0000      -1.040471       -28.3127 
  13   1.0000      -0.888518       -24.1778 
  14   1.0000      -0.839843       -22.8533 
  15   1.0000      -0.757303       -20.6073 
  16   1.0000      -0.738925       -20.1072 
  17   1.0000      -0.625823       -17.0295 
  18   1.0000      -0.610004       -16.5991 
  19   1.0000      -0.547485       -14.8978 
  20   1.0000      -0.501101       -13.6357 
  21   1.0000      -0.487337       -13.2611 
  22   1.0000      -0.457864       -12.4591 
  23   1.0000      -0.436705       -11.8833 
  24   1.0000      -0.429617       -11.6905 
  25   1.0000      -0.390100       -10.6152 
  26   1.0000      -0.376615       -10.2482 
  27   1.0000      -0.373778       -10.1710 
  28   1.0000      -0.338749        -9.2178 
  29   1.0000      -0.317797        -8.6477 
  30   1.0000      -0.307031        -8.3547 
  31   1.0000      -0.266150        -7.2423 
  32   1.0000      -0.252757        -6.8779 
  33   0.0000      -0.029169        -0.7937 
  34   0.0000      -0.022521        -0.6128 
  35   0.0000       0.011006         0.2995 
  36   0.0000       0.033470         0.9108 
  37   0.0000       0.058493         1.5917 
  38   0.0000       0.074040         2.0147 
  39   0.0000       0.098438         2.6786 
  40   0.0000       0.107831         2.9342 
  41   0.0000       0.124951         3.4001 
  42   0.0000       0.135583         3.6894 
  43   0.0000       0.171381         4.6635 
*Only the first 10 virtual orbitals were printed.

                    ********************************
                    * MULLIKEN POPULATION ANALYSIS *
                    ********************************

--------------------------------------------
MULLIKEN ATOMIC CHARGES AND SPIN POPULATIONS
--------------------------------------------
   0 C :   -0.112153   -0.000000
   1 C :   -0.155204    0.000000
   2 C :    0.112037   -0.000000
   3 C :    0.157315    0.000000
   4 C :   -0.160578   -0.000000
   5 C :   -0.091371    0.000000
   6 H :    0.114852   -0.000000
   7 H :    0.123473    0.000000
   8 H :    0.118812   -0.000000
   9 H :    0.115349    0.000000
  10 O :   -0.439481    0.000000
  11 H :    0.318398   -0.000000
  12 Cl:   -0.101449   -0.000000
Sum of atomic charges         :   -0.0000000
Sum of atomic spin populations:    0.0000000

-----------------------------------------------------
MULLIKEN REDUCED ORBITAL CHARGES AND SPIN POPULATIONS
-----------------------------------------------------
CHARGE
  0 C s       :     3.205085  s :     3.205085
      pz      :     0.892206  p :     2.821036
      px      :     0.970995
      py      :     0.957835
      dz2     :     0.024129  d :     0.078764
      dxz     :     0.022439
      dyz     :     0.018595
      dx2y2   :     0.008550
      dxy     :     0.005052
      f0      :     0.001659  f :     0.007268
      f+1     :     0.001214
      f-1     :     0.001208
      f+2     :     0.000874
      f-2     :     0.001161
      f+3     :     0.000476
      f-3     :     0.000675

  1 C s       :     3.231381  s :     3.231381
      pz      :     0.950218  p :     2.834595
      px      :     0.971963
      py      :     0.912414
      dz2     :     0.018051  d :     0.081755
      dxz     :     0.009213
      dyz     :     0.022817
      dx2y2   :     0.012178
      dxy     :     0.019495
      f0      :     0.001376  f :     0.007472
      f+1     :     0.000892
      f-1     :     0.001248
      f+2     :     0.001283
      f-2     :     0.000438
      f+3     :     0.001619
      f-3     :     0.000617

  2 C s       :     3.151002  s :     3.151002
      pz      :     0.777846  p :     2.579343
      px      :     1.008585
      py      :     0.792912
      dz2     :     0.033964  d :     0.147272
      dxz     :     0.026170
      dyz     :     0.048100
      dx2y2   :     0.013856
      dxy     :     0.025183
      f0      :     0.002244  f :     0.010345
      f+1     :     0.001321
      f-1     :     0.001648
      f+2     :     0.001857
      f-2     :     0.000971
      f+3     :     0.001655
      f-3     :     0.000649

  3 C s       :     3.054971  s :     3.054971
      pz      :     0.934107  p :     2.613408
      px      :     0.980458
      py      :     0.698844
      dz2     :     0.029982  d :     0.160029
      dxz     :     0.024741
      dyz     :     0.054446
      dx2y2   :     0.015366
      dxy     :     0.035494
      f0      :     0.003400  f :     0.014277
      f+1     :     0.001598
      f-1     :     0.001853
      f+2     :     0.002651
      f-2     :     0.001191
      f+3     :     0.002030
      f-3     :     0.001553

  4 C s       :     3.250124  s :     3.250124
      pz      :     0.935222  p :     2.830259
      px      :     0.981419
      py      :     0.913618
      dz2     :     0.012801  d :     0.072839
      dxz     :     0.009756
      dyz     :     0.026823
      dx2y2   :     0.005953
      dxy     :     0.017507
      f0      :     0.001303  f :     0.007355
      f+1     :     0.000903
      f-1     :     0.001260
      f+2     :     0.001296
      f-2     :     0.000439
      f+3     :     0.001554
      f-3     :     0.000601

  5 C s       :     3.195217  s :     3.195217
      pz      :     0.947306  p :     2.811590
      px      :     0.964395
      py      :     0.899889
      dz2     :     0.015228  d :     0.077263
      dxz     :     0.009191
      dyz     :     0.024864
      dx2y2   :     0.009698
      dxy     :     0.018283
      f0      :     0.001426  f :     0.007302
      f+1     :     0.000864
      f-1     :     0.001210
      f+2     :     0.001266
      f-2     :     0.000419
      f+3     :     0.001557
      f-3     :     0.000560

  6 H s       :     0.863216  s :     0.863216
      pz      :     0.003321  p :     0.021932
      px      :     0.004659
      py      :     0.013952

  7 H s       :     0.854519  s :     0.854519
      pz      :     0.011511  p :     0.022008
      px      :     0.004543
      py      :     0.005954

  8 H s       :     0.859270  s :     0.859270
      pz      :     0.011302  p :     0.021918
      px      :     0.004607
      py      :     0.006009

  9 H s       :     0.862769  s :     0.862769
      pz      :     0.011273  p :     0.021882
      px      :     0.004607
      py      :     0.006002

 10 O s       :     3.789798  s :     3.789798
      pz      :     1.898129  p :     4.619747
      px      :     1.423720
      py      :     1.297897
      dz2     :     0.004522  d :     0.028346
      dxz     :     0.001578
      dyz     :     0.003600
      dx2y2   :     0.011888
      dxy     :     0.006758
      f0      :     0.000186  f :     0.001591
      f+1     :     0.000330
      f-1     :     0.000363
      f+2     :     0.000104
      f-2     :     0.000021
      f+3     :     0.000178
      f-3     :     0.000408

 11 H s       :     0.632527  s :     0.632527
      pz      :     0.017581  p :     0.049075
      px      :     0.019206
      py      :     0.012288

 12 Cls       :     5.888681  s :     5.888681
      pz      :     3.427460  p :    11.147664
      px      :     3.919763
      py      :     3.800441
      dz2     :     0.016991  d :     0.059681
      dxz     :     0.013300
      dyz     :     0.020843
      dx2y2   :     0.003531
      dxy     :     0.005017
      f0      :     0.001039  f :     0.005423
      f+1     :     0.000633
      f-1     :     0.002197
      f+2     :     0.000759
      f-2     :     0.000618
      f+3     :     0.000096
      f-3     :     0.000081


SPIN
  0 C s       :    -0.000000  s :    -0.000000
      pz      :    -0.000000  p :    -0.000000
      px      :    -0.000000
      py      :    -0.000000
      dz2     :    -0.000000  d :    -0.000000
      dxz     :    -0.000000
      dyz     :    -0.000000
      dx2y2   :    -0.000000
      dxy     :    -0.000000
      f0      :     0.000000  f :     0.000000
      f+1     :     0.000000
      f-1     :     0.000000
      f+2     :    -0.000000
      f-2     :    -0.000000
      f+3     :    -0.000000
      f-3     :     0.000000

  1 C s       :     0.000000  s :     0.000000
      pz      :     0.000000  p :     0.000000
      px      :     0.000000
      py      :     0.000000
      dz2     :     0.000000  d :     0.000000
      dxz     :     0.000000
      dyz     :    -0.000000
      dx2y2   :     0.000000
      dxy     :     0.000000
      f0      :     0.000000  f :     0.000000
      f+1     :     0.000000
      f-1     :     0.000000
      f+2     :     0.000000
      f-2     :    -0.000000
      f+3     :    -0.000000
      f-3     :    -0.000000

  2 C s       :    -0.000000  s :    -0.000000
      pz      :     0.000000  p :     0.000000
      px      :    -0.000000
      py      :    -0.000000
      dz2     :     0.000000  d :     0.000000
      dxz     :    -0.000000
      dyz     :     0.000000
      dx2y2   :     0.000000
      dxy     :    -0.000000
      f0      :     0.000000  f :     0.000000
      f+1     :     0.000000
      f-1     :     0.000000
      f+2     :     0.000000
      f-2     :     0.000000
      f+3     :    -0.000000
      f-3     :     0.000000

  3 C s       :     0.000000  s :     0.000000
      pz      :    -0.000000  p :     0.000000
      px      :    -0.000000
      py      :     0.000000
      dz2     :    -0.000000  d :    -0.000000
      dxz     :     0.000000
      dyz     :     0.000000
      dx2y2   :     0.000000
      dxy     :     0.000000
      f0      :     0.000000  f :    -0.000000
      f+1     :    -0.000000
      f-1     :    -0.000000
      f+2     :     0.000000
      f-2     :     0.000000
      f+3     :    -0.000000
      f-3     :    -0.000000

  4 C s       :    -0.000000  s :    -0.000000
      pz      :    -0.000000  p :    -0.000000
      px      :     0.000000
      py      :    -0.000000
      dz2     :     0.000000  d :    -0.000000
      dxz     :    -0.000000
      dyz     :    -0.000000
      dx2y2   :    -0.000000
      dxy     :    -0.000000
      f0      :    -0.000000  f :    -0.000000
      f+1     :    -0.000000
      f-1     :    -0.000000
      f+2     :     0.000000
      f-2     :    -0.000000
      f+3     :    -0.000000
      f-3     :     0.000000

  5 C s       :     0.000000  s :     0.000000
      pz      :     0.000000  p :     0.000000
      px      :    -0.000000
      py      :     0.000000
      dz2     :    -0.000000  d :    -0.000000
      dxz     :    -0.000000
      dyz     :    -0.000000
      dx2y2   :     0.000000
      dxy     :    -0.000000
      f0      :     0.000000  f :    -0.000000
      f+1     :     0.000000
      f-1     :    -0.000000
      f+2     :    -0.000000
      f-2     :     0.000000
      f+3     :     0.000000
      f-3     :     0.000000

  6 H s       :    -0.000000  s :    -0.000000
      pz      :     0.000000  p :     0.000000
      px      :    -0.000000
      py      :     0.000000

  7 H s       :     0.000000  s :     0.000000
      pz      :    -0.000000  p :    -0.000000
      px      :    -0.000000
      py      :     0.000000

  8 H s       :    -0.000000  s :    -0.000000
      pz      :     0.000000  p :     0.000000
      px      :     0.000000
      py      :     0.000000

  9 H s       :     0.000000  s :     0.000000
      pz      :     0.000000  p :     0.000000
      px      :    -0.000000
      py      :     0.000000

 10 O s       :     0.000000  s :     0.000000
      pz      :    -0.000000  p :    -0.000000
      px      :     0.000000
      py      :    -0.000000
      dz2     :    -0.000000  d :    -0.000000
      dxz     :     0.000000
      dyz     :    -0.000000
      dx2y2   :    -0.000000
      dxy     :     0.000000
      f0      :    -0.000000  f :    -0.000000
      f+1     :    -0.000000
      f-1     :    -0.000000
      f+2     :    -0.000000
      f-2     :    -0.000000
      f+3     :     0.000000
      f-3     :     0.000000

 11 H s       :    -0.000000  s :    -0.000000
      pz      :     0.000000  p :    -0.000000
      px      :    -0.000000
      py      :    -0.000000

 12 Cls       :    -0.000000  s :    -0.000000
      pz      :    -0.000000  p :     0.000000
      px      :    -0.000000
      py      :     0.000000
      dz2     :    -0.000000  d :     0.000000
      dxz     :     0.000000
      dyz     :     0.000000
      dx2y2   :     0.000000
      dxy     :     0.000000
      f0      :     0.000000  f :     0.000000
      f+1     :     0.000000
      f-1     :     0.000000
      f+2     :     0.000000
      f-2     :     0.000000
      f+3     :    -0.000000
      f-3     :     0.000000



                     *******************************
                     * LOEWDIN POPULATION ANALYSIS *
                     *******************************

-------------------------------------------
LOEWDIN ATOMIC CHARGES AND SPIN POPULATIONS
-------------------------------------------
   0 C :   -0.141563   -0.000000
   1 C :   -0.140181    0.000000
   2 C :   -0.390701    0.000000
   3 C :   -0.238063    0.000000
   4 C :   -0.117236   -0.000000
   5 C :   -0.139306   -0.000000
   6 H :    0.147868   -0.000000
   7 H :    0.151422   -0.000000
   8 H :    0.153139   -0.000000
   9 H :    0.147302    0.000000
  10 O :    0.008337    0.000000
  11 H :    0.180481   -0.000000
  12 Cl:    0.378500   -0.000000

----------------------------------------------------
LOEWDIN REDUCED ORBITAL CHARGES AND SPIN POPULATIONS
----------------------------------------------------
CHARGE
  0 C s       :     2.770754  s :     2.770754
      pz      :     1.066223  p :     2.945705
      px      :     0.892105
      py      :     0.987377
      dz2     :     0.138481  d :     0.382282
      dxz     :     0.078099
      dyz     :     0.102368
      dx2y2   :     0.051295
      dxy     :     0.012038
      f0      :     0.011954  f :     0.042822
      f+1     :     0.003719
      f-1     :     0.008658
      f+2     :     0.007622
      f-2     :     0.007607
      f+3     :     0.000566
      f-3     :     0.002697

  1 C s       :     2.772960  s :     2.772960
      pz      :     1.019343  p :     2.944664
      px      :     0.890911
      py      :     1.034411
      dz2     :     0.093688  d :     0.379762
      dxz     :     0.027771
      dyz     :     0.137264
      dx2y2   :     0.055297
      dxy     :     0.065743
      f0      :     0.009573  f :     0.042793
      f+1     :     0.004126
      f-1     :     0.007534
      f+2     :     0.007774
      f-2     :     0.002864
      f+3     :     0.005698
      f-3     :     0.005225

  2 C s       :     2.785017  s :     2.785017
      pz      :     0.969295  p :     2.960977
      px      :     0.933839
      py      :     1.057844
      dz2     :     0.151966  d :     0.584377
      dxz     :     0.085143
      dyz     :     0.200848
      dx2y2   :     0.066055
      dxy     :     0.080365
      f0      :     0.014977  f :     0.060330
      f+1     :     0.006414
      f-1     :     0.010877
      f+2     :     0.011358
      f-2     :     0.006686
      f+3     :     0.005085
      f-3     :     0.004934

  3 C s       :     2.731153  s :     2.731153
      pz      :     1.081461  p :     2.789945
      px      :     0.890684
      py      :     0.817800
      dz2     :     0.146821  d :     0.632511
      dxz     :     0.079747
      dyz     :     0.210054
      dx2y2   :     0.104681
      dxy     :     0.091207
      f0      :     0.021000  f :     0.084455
      f+1     :     0.006123
      f-1     :     0.012896
      f+2     :     0.015915
      f-2     :     0.007839
      f+3     :     0.009799
      f-3     :     0.010884

  4 C s       :     2.771054  s :     2.771054
      pz      :     0.994061  p :     2.935097
      px      :     0.895795
      py      :     1.045241
      dz2     :     0.082632  d :     0.368806
      dxz     :     0.029939
      dyz     :     0.144607
      dx2y2   :     0.051454
      dxy     :     0.060174
      f0      :     0.009259  f :     0.042279
      f+1     :     0.004281
      f-1     :     0.007763
      f+2     :     0.008035
      f-2     :     0.003083
      f+3     :     0.005048
      f-3     :     0.004808

  5 C s       :     2.770862  s :     2.770862
      pz      :     1.010020  p :     2.942189
      px      :     0.886149
      py      :     1.046020
      dz2     :     0.091214  d :     0.383386
      dxz     :     0.028302
      dyz     :     0.147730
      dx2y2   :     0.053148
      dxy     :     0.062991
      f0      :     0.010311  f :     0.042870
      f+1     :     0.004010
      f-1     :     0.007407
      f+2     :     0.008278
      f-2     :     0.002848
      f+3     :     0.005132
      f-3     :     0.004883

  6 H s       :     0.795921  s :     0.795921
      pz      :     0.009880  p :     0.056212
      px      :     0.012732
      py      :     0.033600

  7 H s       :     0.791719  s :     0.791719
      pz      :     0.028482  p :     0.056859
      px      :     0.012683
      py      :     0.015694

  8 H s       :     0.790122  s :     0.790122
      pz      :     0.028007  p :     0.056739
      px      :     0.012795
      py      :     0.015938

  9 H s       :     0.796555  s :     0.796555
      pz      :     0.027713  p :     0.056143
      px      :     0.012617
      py      :     0.015813

 10 O s       :     3.363780  s :     3.363780
      pz      :     1.783635  p :     4.562438
      px      :     1.441373
      py      :     1.337430
      dz2     :     0.008330  d :     0.061393
      dxz     :     0.000593
      dyz     :     0.009993
      dx2y2   :     0.023953
      dxy     :     0.018524
      f0      :     0.000303  f :     0.004052
      f+1     :     0.000488
      f-1     :     0.000667
      f+2     :     0.000453
      f-2     :     0.000006
      f+3     :     0.001002
      f-3     :     0.001133

 11 H s       :     0.660721  s :     0.660721
      pz      :     0.046776  p :     0.158797
      px      :     0.080281
      py      :     0.031740

 12 Cls       :     5.564809  s :     5.564809
      pz      :     3.388938  p :    10.949967
      px      :     3.848537
      py      :     3.712492
      dz2     :     0.027995  d :     0.095765
      dxz     :     0.020882
      dyz     :     0.033111
      dx2y2   :     0.006036
      dxy     :     0.007740
      f0      :     0.002359  f :     0.010960
      f+1     :     0.001367
      f-1     :     0.003958
      f+2     :     0.001543
      f-2     :     0.001382
      f+3     :     0.000189
      f-3     :     0.000161


SPIN
  0 C s       :    -0.000000  s :    -0.000000
      pz      :     0.000000  p :    -0.000000
      px      :     0.000000
      py      :    -0.000000
      dz2     :     0.000000  d :     0.000000
      dxz     :    -0.000000
      dyz     :    -0.000000
      dx2y2   :     0.000000
      dxy     :    -0.000000
      f0      :    -0.000000  f :     0.000000
      f+1     :     0.000000
      f-1     :     0.000000
      f+2     :     0.000000
      f-2     :    -0.000000
      f+3     :    -0.000000
      f-3     :     0.000000

  1 C s       :     0.000000  s :     0.000000
      pz      :     0.000000  p :     0.000000
      px      :     0.000000
      py      :     0.000000
      dz2     :    -0.000000  d :    -0.000000
      dxz     :     0.000000
      dyz     :     0.000000
      dx2y2   :    -0.000000
      dxy     :     0.000000
      f0      :    -0.000000  f :     0.000000
      f+1     :     0.000000
      f-1     :     0.000000
      f+2     :     0.000000
      f-2     :    -0.000000
      f+3     :    -0.000000
      f-3     :    -0.000000

  2 C s       :    -0.000000  s :    -0.000000
      pz      :     0.000000  p :     0.000000
      px      :     0.000000
      py      :     0.000000
      dz2     :    -0.000000  d :    -0.000000
      dxz     :    -0.000000
      dyz     :     0.000000
      dx2y2   :     0.000000
      dxy     :    -0.000000
      f0      :     0.000000  f :     0.000000
      f+1     :    -0.000000
      f-1     :     0.000000
      f+2     :    -0.000000
      f-2     :    -0.000000
      f+3     :     0.000000
      f-3     :     0.000000

  3 C s       :     0.000000  s :     0.000000
      pz      :    -0.000000  p :    -0.000000
      px      :    -0.000000
      py      :     0.000000
      dz2     :    -0.000000  d :     0.000000
      dxz     :     0.000000
      dyz     :     0.000000
      dx2y2   :    -0.000000
      dxy     :     0.000000
      f0      :     0.000000  f :     0.000000
      f+1     :     0.000000
      f-1     :     0.000000
      f+2     :    -0.000000
      f-2     :     0.000000
      f+3     :    -0.000000
      f-3     :     0.000000

  4 C s       :    -0.000000  s :    -0.000000
      pz      :    -0.000000  p :     0.000000
      px      :     0.000000
      py      :     0.000000
      dz2     :    -0.000000  d :    -0.000000
      dxz     :    -0.000000
      dyz     :     0.000000
      dx2y2   :    -0.000000
      dxy     :    -0.000000
      f0      :     0.000000  f :     0.000000
      f+1     :    -0.000000
      f-1     :     0.000000
      f+2     :     0.000000
      f-2     :    -0.000000
      f+3     :    -0.000000
      f-3     :    -0.000000

  5 C s       :     0.000000  s :     0.000000
      pz      :     0.000000  p :    -0.000000
      px      :    -0.000000
      py      :    -0.000000
      dz2     :    -0.000000  d :     0.000000
      dxz     :    -0.000000
      dyz     :    -0.000000
      dx2y2   :     0.000000
      dxy     :     0.000000
      f0      :    -0.000000  f :     0.000000
      f+1     :     0.000000
      f-1     :     0.000000
      f+2     :     0.000000
      f-2     :     0.000000
      f+3     :     0.000000
      f-3     :    -0.000000

  6 H s       :    -0.000000  s :    -0.000000
      pz      :     0.000000  p :     0.000000
      px      :     0.000000
      py      :     0.000000

  7 H s       :    -0.000000  s :    -0.000000
      pz      :     0.000000  p :     0.000000
      px      :     0.000000
      py      :     0.000000

  8 H s       :    -0.000000  s :    -0.000000
      pz      :    -0.000000  p :     0.000000
      px      :     0.000000
      py      :     0.000000

  9 H s       :     0.000000  s :     0.000000
      pz      :    -0.000000  p :    -0.000000
      px      :    -0.000000
      py      :    -0.000000

 10 O s       :     0.000000  s :     0.000000
      pz      :     0.000000  p :     0.000000
      px      :    -0.000000
      py      :     0.000000
      dz2     :    -0.000000  d :    -0.000000
      dxz     :     0.000000
      dyz     :    -0.000000
      dx2y2   :    -0.000000
      dxy     :    -0.000000
      f0      :    -0.000000  f :    -0.000000
      f+1     :    -0.000000
      f-1     :     0.000000
      f+2     :    -0.000000
      f-2     :    -0.000000
      f+3     :    -0.000000
      f-3     :    -0.000000

 11 H s       :    -0.000000  s :    -0.000000
      pz      :     0.000000  p :     0.000000
      px      :    -0.000000
      py      :     0.000000

 12 Cls       :     0.000000  s :     0.000000
      pz      :    -0.000000  p :    -0.000000
      px      :    -0.000000
      py      :     0.000000
      dz2     :    -0.000000  d :     0.000000
      dxz     :     0.000000
      dyz     :     0.000000
      dx2y2   :     0.000000
      dxy     :     0.000000
      f0      :    -0.000000  f :     0.000000
      f+1     :     0.000000
      f-1     :     0.000000
      f+2     :     0.000000
      f-2     :     0.000000
      f+3     :    -0.000000
      f-3     :     0.000000



                      *****************************
                      * MAYER POPULATION ANALYSIS *
                      *****************************

  NA   - Mulliken gross atomic population
  ZA   - Total nuclear charge
  QA   - Mulliken gross atomic charge
  VA   - Mayer's total valence
  BVA  - Mayer's bonded valence
  FA   - Mayer's free valence

  ATOM       NA         ZA         QA         VA         BVA        FA
  0 C      6.1122     6.0000    -0.1122     3.9173     3.9173     0.0000
  1 C      6.1552     6.0000    -0.1552     3.9483     3.9483    -0.0000
  2 C      5.8880     6.0000     0.1120     3.7276     3.7276    -0.0000
  3 C      5.8427     6.0000     0.1573     3.9789     3.9789    -0.0000
  4 C      6.1606     6.0000    -0.1606     3.9184     3.9184    -0.0000
  5 C      6.0914     6.0000    -0.0914     3.8929     3.8929     0.0000
  6 H      0.8851     1.0000     0.1149     0.9684     0.9684     0.0000
  7 H      0.8765     1.0000     0.1235     0.9816     0.9816    -0.0000
  8 H      0.8812     1.0000     0.1188     0.9852     0.9852    -0.0000
  9 H      0.8847     1.0000     0.1153     0.9676     0.9676     0.0000
 10 O      8.4395     8.0000    -0.4395     2.0009     2.0009    -0.0000
 11 H      0.6816     1.0000     0.3184     0.9070     0.9070    -0.0000
 12 Cl    17.1014    17.0000    -0.1014     1.2207     1.2207    -0.0000

  Mayer bond orders larger than 0.100000
B(  0-C ,  1-C ) :   1.4093 B(  0-C ,  5-C ) :   1.4129 B(  0-C ,  6-H ) :   0.9635 
B(  1-C ,  2-C ) :   1.3553 B(  1-C ,  7-H ) :   0.9583 B(  2-C ,  3-C ) :   1.2902 
B(  2-C , 12-Cl) :   1.0039 B(  3-C ,  4-C ) :   1.4250 B(  3-C , 10-O ) :   1.0894 
B(  4-C ,  5-C ) :   1.3965 B(  4-C ,  8-H ) :   0.9643 B(  5-C ,  9-H ) :   0.9642 
B( 10-O , 11-H ) :   0.8862 

-------
TIMINGS
-------

Total SCF time: 0 days 0 hours 0 min 10 sec 

Total time                  ....      10.628 sec
Sum of individual times     ....       9.939 sec  ( 93.5%)

SCF preparation             ....       0.149 sec  (  1.4%)
Fock matrix formation       ....       7.639 sec  ( 71.9%)
  Startup                   ....       0.104 sec  (  1.4% of F)
  Split-RI-J                ....       0.571 sec  (  7.5% of F)
  Chain of spheres X        ....       4.456 sec  ( 58.3% of F)
  XC integration            ....       1.822 sec  ( 23.9% of F)
    Basis function eval.    ....       0.236 sec  ( 13.0% of XC)
    Density eval.           ....       0.309 sec  ( 17.0% of XC)
    XC-Functional eval.     ....       0.013 sec  (  0.7% of XC)
    XC-Potential eval.      ....       0.474 sec  ( 26.0% of XC)
Diagonalization             ....       0.000 sec  (  0.0%)
Density matrix formation    ....       0.450 sec  (  4.2%)
Total Energy calculation    ....       0.305 sec  (  2.9%)
Population analysis         ....       0.128 sec  (  1.2%)
Orbital Transformation      ....       0.174 sec  (  1.6%)
Orbital Orthonormalization  ....       0.000 sec  (  0.0%)
DIIS solution               ....       0.472 sec  (  4.4%)
SOSCF solution              ....       0.622 sec  (  5.9%)
Finished LeanSCF after  10.7 sec

Maximum memory used throughout the entire LEANSCF-calculation: 24.1 MB


           ************************************************************
           *        Program running with 20 parallel MPI-processes    *
           *              working on a common directory               *
           ************************************************************

------------------------------------------------------------------------------
                         ORCA PROPERTY INTEGRAL CALCULATIONS
------------------------------------------------------------------------------

GBWName                                   ... C:\orca_jobs\ex1\B3LYP.gbw
Number of atoms                           ...     13
Number of basis functions                 ...    284
Max core memory                           ...   2500 MB

Dipole integrals                          ... YES
Quadrupole integrals                      ...  NO
Linear momentum integrals                 ...  NO
Angular momentum integrals                ...  NO
Higher moments length integrals           ...  NO
Higher moments velocity integrals         ...  NO
Kinetic energy integrals                  ...  NO
GIAO right hand sides                     ...  NO
GIAO dipole derivative integrals          ...  NO
SOC integrals                             ...  NO
EPR diamagnetic integrals (GIAO)          ...  NO
EPR gauge integrals                       ...  NO
Field gradient integrals                  ...  NO (   0 nuclei)
Spin-dipole/Fermi contact integrals       ...  NO (   0 nuclei)
Contact density integrals                 ...  NO (   0 nuclei)
Nucleus-orbit integrals                   ...  NO (   0 nuclei)
Geometric perturbations                   ...  NO (  13 nuclei)

Choice of electric origin   ... Center of mass
Position of electric origin ... ( -0.0342,  0.5984,  1.3919) 
Choice of magnetic origin   ... GIAO
Position of magnetic origin ... (  0.0000,  0.0000,  0.0000) 

[...]
     11      -0.116441  -0.090654   0.346683  -0.067195  -0.000341  -0.000508
     12      -0.000877  -0.008021  -0.004142   0.019800  -0.000055  -0.000125
     13      -0.050028  -0.127007  -0.002394   0.346680  -0.012835  -0.018925
     14       0.073832  -0.079740  -0.184863   0.122432   0.026529   0.037067
     15       0.007046  -0.000357  -0.003367  -0.013150  -0.002963  -0.001068
     16       0.138443  -0.051585  -0.170615  -0.283758  -0.034903  -0.011296
     17       0.008590   0.100122   0.231318   0.039020  -0.056240  -0.023145
     18       0.014384   0.010423   0.011664   0.004459  -0.023365   0.030410
     19      -0.008363   0.136689   0.069202   0.153396  -0.480145   0.627075
     20       0.673278   0.167539   0.375590  -0.145998   0.017956  -0.028030
     21       0.009436   0.030843  -0.003938   0.020005   0.000605  -0.001751
     22       0.107212   0.512730  -0.125102   0.323830   0.083393  -0.242151
     23       0.191885   0.254606   0.103142   0.190707  -0.161379   0.469077
     24       0.001462   0.029800   0.007167  -0.024256   0.001504   0.002123
     25      -0.020462   0.492067   0.189323  -0.368973   0.168274   0.231112
     26       0.113241   0.250345  -0.101941  -0.275848  -0.311556  -0.425292
     27      -0.010258   0.015181   0.016401   0.003954   0.034702   0.012901
     28      -0.354212   0.372184   0.374158   0.206218   0.408222   0.150016
     29       0.331720  -0.146881  -0.092534  -0.280026   0.659735   0.249092
     30       0.001722  -0.002534  -0.000399   0.001725   0.000002   0.000012
     31       0.015128  -0.059422   0.017142   0.029040  -0.000029   0.000224
     32       0.040352   0.017940  -0.052379   0.011027   0.000149   0.000078
     33       0.013489   0.002388  -0.016782   0.003485  -0.000071   0.000038
     34       0.340713   0.064925  -0.427886   0.099403  -0.000507   0.000936
     35      -0.121329  -0.037388   0.167852  -0.042768  -0.001733  -0.000342
     36      -0.000140  -0.000150  -0.000146   0.000088   0.000000   0.000003
     37      -0.002992  -0.000768  -0.002892   0.000276   0.000007   0.000041
     38       0.000169  -0.005354  -0.000147   0.003351  -0.000015   0.000068
                 36         37         38    
      0      -0.000206   0.002667  -0.000009
      1      -0.002939   0.054563  -0.000227
      2      -0.002823  -0.001439   0.000061
      3      -0.000149   0.000106   0.000016
      4      -0.019660   0.025749   0.000214
      5       0.037804  -0.053596   0.000225
      6       0.000100  -0.000153  -0.000065
      7       0.001964  -0.002756  -0.001154
      8       0.000132  -0.000764  -0.000299
      9      -0.000154  -0.000060   0.000162
     10      -0.002154  -0.001053   0.002171
     11      -0.002201  -0.000356   0.002331
     12      -0.000365  -0.000179  -0.000059
     13      -0.032813  -0.012557  -0.000890
     14       0.057507   0.020222  -0.000754
     15       0.001826   0.001355   0.000016
     16       0.022779   0.015352   0.000270
     17       0.031815   0.027097   0.000102
     18       0.001696  -0.029298   0.000038
     19       0.033303  -0.602797   0.000666
     20       0.002264   0.024236   0.000164
     21       0.001524  -0.001916  -0.000061
     22       0.222456  -0.300763  -0.001252
     23      -0.434929   0.594423  -0.000003
     24       0.003501   0.001298  -0.000000
     25       0.361842   0.128024  -0.000313
     26      -0.658000  -0.230154   0.000671
     27      -0.019485  -0.015021  -0.000041
     28      -0.230581  -0.175705  -0.000459
     29      -0.367438  -0.287853  -0.000949
     30       0.000020   0.000009   0.002652
     31       0.000272   0.000155   0.026053
     32       0.000290   0.000069   0.055728
     33       0.000048   0.000018  -0.042953
     34       0.001436   0.000483  -0.421217
     35      -0.000813  -0.000144  -0.903838
     36      -0.000004   0.000007   0.000006
     37      -0.000048   0.000097   0.000128
     38      -0.000062   0.000104  -0.000012


-----------
IR SPECTRUM
-----------

 Mode   freq       eps      Int      T**2         TX        TY        TZ
       cm**-1   L/(mol*cm) km/mol    a.u.
----------------------------------------------------------------------------
  6:    159.48   0.000000    0.00  0.000001  (-0.000871  0.000028 -0.000011)
  7:    252.59   0.000540    2.73  0.000667  ( 0.001284  0.022994 -0.011695)
  8:    265.01   0.000253    1.28  0.000298  (-0.017211  0.001147  0.000282)
  9:    376.04   0.000421    2.13  0.000349  (-0.000272 -0.008678  0.016543)
 10:    436.55   0.016962   85.72  0.012125  ( 0.109955 -0.005319 -0.002613)
 11:    455.40   0.001434    7.25  0.000983  (-0.031313  0.001300  0.000820)
 12:    496.00   0.002206   11.15  0.001388  (-0.001405 -0.036753 -0.005941)
 13:    551.60   0.000173    0.88  0.000098  (-0.009883  0.000510  0.000188)
 14:    565.36   0.000822    4.16  0.000454  (-0.001128 -0.018706 -0.010138)
 15:    687.43   0.004463   22.55  0.002026  ( 0.002166  0.030393  0.033129)
 16:    717.94   0.000005    0.02  0.000002  (-0.001440  0.000164  0.000044)
 17:    760.99   0.013711   69.29  0.005623  (-0.074874  0.003720  0.001667)
 18:    846.14   0.002352   11.89  0.000867  (-0.001069 -0.026295  0.013222)
 19:    865.93   0.000222    1.12  0.000080  (-0.008928  0.000380  0.000223)
 20:    939.26   0.000591    2.99  0.000196  ( 0.013991 -0.000681 -0.000218)
 21:    957.71   0.000039    0.20  0.000013  (-0.003567  0.000164  0.000120)
 22:   1047.24   0.007503   37.92  0.002236  (-0.002465 -0.039069 -0.026520)
 23:   1064.73   0.002677   13.53  0.000785  ( 0.000955  0.008267  0.026748)
 24:   1142.78   0.000822    4.15  0.000224  (-0.000702 -0.008994 -0.011960)
 25:   1181.26   0.000672    3.40  0.000178  (-0.000094 -0.006864  0.011419)
 26:   1214.10   0.024209  122.34  0.006222  (-0.002617 -0.069719  0.036809)
 27:   1278.16   0.013156   66.48  0.003212  (-0.002520 -0.055655  0.010396)
 28:   1325.34   0.006824   34.49  0.001607  (-0.002155 -0.037430 -0.014183)
 29:   1372.69   0.004537   22.93  0.001031  (-0.001267 -0.030396  0.010285)
 30:   1495.09   0.000611    3.09  0.000127  ( 0.000135 -0.002337  0.011045)
 31:   1514.21   0.025436  128.54  0.005242  ( 0.003722  0.071816  0.008412)
 32:   1625.47   0.003626   18.33  0.000696  (-0.001201 -0.026089  0.003764)
 33:   1634.57   0.005735   28.98  0.001095  (-0.001393 -0.031920  0.008612)
 34:   3175.37   0.000389    1.97  0.000038  (-0.000227 -0.002174 -0.005784)
 35:   3188.03   0.001118    5.65  0.000109  (-0.000549 -0.010079 -0.002748)
 36:   3195.53   0.001100    5.56  0.000107  ( 0.000121 -0.002076  0.010152)
 37:   3202.99   0.000980    4.95  0.000095  ( 0.000504  0.009483  0.002304)
 38:   3721.37   0.016502   83.39  0.001384  (-0.001812 -0.022374 -0.029663)

* The epsilon (eps) is given for a Dirac delta lineshape.
** The dipole moment derivative (T) already includes vibrational overlap.

The first frequency considered to be a vibration is 6
The total number of vibrations considered is 33


--------------------------
THERMOCHEMISTRY AT 298.15K
--------------------------

Temperature         ...   298.15 K
Pressure            ...     1.00 atm
Total Mass          ...   128.56 AMU
Quasi RRHO          ...     True
Cut-Off Frequency   ...     1.00 cm^-1

Throughout the following assumptions are being made:
  (1) The electronic state is orbitally nondegenerate
  (2) There are no thermally accessible electronically excited states
  (3) Hindered rotations indicated by low frequency modes are not
      treated as such but are treated as vibrations and this may
      cause some error
  (4) All equations used are the standard statistical mechanics
      equations for an ideal gas
  (5) All vibrations are strictly harmonic

freq.     159.48  E(vib)   ...       0.39 
freq.     252.59  E(vib)   ...       0.30 
freq.     265.01  E(vib)   ...       0.29 
freq.     376.04  E(vib)   ...       0.21 
freq.     436.55  E(vib)   ...       0.17 
freq.     455.40  E(vib)   ...       0.16 
freq.     496.00  E(vib)   ...       0.14 
freq.     551.60  E(vib)   ...       0.12 
freq.     565.36  E(vib)   ...       0.11 
freq.     687.43  E(vib)   ...       0.07 
freq.     717.94  E(vib)   ...       0.07 
freq.     760.99  E(vib)   ...       0.06 
freq.     846.14  E(vib)   ...       0.04 
freq.     865.93  E(vib)   ...       0.04 
freq.     939.26  E(vib)   ...       0.03 
freq.     957.71  E(vib)   ...       0.03 
freq.    1047.24  E(vib)   ...       0.02 
freq.    1064.73  E(vib)   ...       0.02 
freq.    1142.78  E(vib)   ...       0.01 
freq.    1181.26  E(vib)   ...       0.01 
freq.    1214.10  E(vib)   ...       0.01 
freq.    1278.16  E(vib)   ...       0.01 
freq.    1325.34  E(vib)   ...       0.01 
freq.    1372.69  E(vib)   ...       0.01 
freq.    1495.09  E(vib)   ...       0.00 
freq.    1514.21  E(vib)   ...       0.00 
freq.    1625.47  E(vib)   ...       0.00 
freq.    1634.57  E(vib)   ...       0.00 
freq.    3175.37  E(vib)   ...       0.00 
freq.    3188.03  E(vib)   ...       0.00 
freq.    3195.53  E(vib)   ...       0.00 
freq.    3202.99  E(vib)   ...       0.00 
freq.    3721.37  E(vib)   ...       0.00 

------------
INNER ENERGY
------------

The inner energy is: U= E(el) + E(ZPE) + E(vib) + E(rot) + E(trans)
    E(el)   - is the total energy from the electronic structure calculation
              = E(kin-el) + E(nuc-el) + E(el-el) + E(nuc-nuc)
    E(ZPE)  - the the zero temperature vibrational energy from the frequency calculation
    E(vib)  - the the finite temperature correction to E(ZPE) due to population
              of excited vibrational states
    E(rot)  - is the rotational thermal energy
    E(trans)- is the translational thermal energy

Summary of contributions to the inner energy U:
Electronic energy                ...   -766.97404231 Eh
Zero point energy                ...      0.09502773 Eh      59.63 kcal/mol
Thermal vibrational correction   ...      0.00373126 Eh       2.34 kcal/mol
Thermal rotational correction    ...      0.00141627 Eh       0.89 kcal/mol
Thermal translational correction ...      0.00141627 Eh       0.89 kcal/mol
-----------------------------------------------------------------------
Total thermal energy                   -766.87245078 Eh


Summary of corrections to the electronic energy:
(perhaps to be used in another calculation)
Total thermal correction                  0.00656380 Eh       4.12 kcal/mol
Non-thermal (ZPE) correction              0.09502773 Eh      59.63 kcal/mol
-----------------------------------------------------------------------
Total correction                          0.10159153 Eh      63.75 kcal/mol


--------
ENTHALPY
--------

The enthalpy is H = U + kB*T
                kB is Boltzmann's constant
Total thermal energy              ...   -766.87245078 Eh 
Thermal Enthalpy correction       ...      0.00094421 Eh       0.59 kcal/mol
-----------------------------------------------------------------------
Total Enthalpy                    ...   -766.87150657 Eh


Note: Only C1 symmetry has been detected, increase convergence thresholds 
      if your molecule has a higher symmetry. Symmetry factor of 1.0 is   
      used for the rotational entropy correction. 
 

Note: Rotational entropy computed according to Herzberg 
Infrared and Raman Spectra, Chapter V,1, Van Nostrand Reinhold, 1945 
Point Group:  C1, Symmetry Number:   1  
Rotational constants in cm-1:     0.099746     0.051150     0.033811 

Vibrational entropy computed according to the QRRHO of S. Grimme
Chem.Eur.J. 2012 18 9955 using a reference frequency of 100.0 cm-1


-------
ENTROPY
-------

The entropy contributions are T*S = T*(S(el)+S(vib)+S(rot)+S(trans))
     S(el)   - electronic entropy
     S(vib)  - vibrational entropy
     S(rot)  - rotational entropy
     S(trans)- translational entropy
The entropies will be listed as multiplied by the temperature to get
units of energy

Electronic entropy                ...      0.00000000 Eh      0.00 kcal/mol
Vibrational entropy               ...      0.00574756 Eh      3.61 kcal/mol
Rotational entropy                ...      0.01360152 Eh      8.54 kcal/mol
Translational entropy             ...      0.01922702 Eh     12.07 kcal/mol
-----------------------------------------------------------------------
Final entropy term                ...      0.03857611 Eh     24.21 kcal/mol

In case the symmetry of your molecule has not been determined correctly
or in case you have a reason to use a different symmetry number we print 
out the resulting rotational entropy values for sn=1,12:

 non-linear molecules -----------------------------------
|  sn= 1 | S(rot)=       0.01360152 Eh      8.54 kcal/mol|
|  sn= 2 | S(rot)=       0.01294706 Eh      8.12 kcal/mol|
|  sn= 3 | S(rot)=       0.01256423 Eh      7.88 kcal/mol|
|  sn= 4 | S(rot)=       0.01229261 Eh      7.71 kcal/mol|
|  sn= 5 | S(rot)=       0.01208192 Eh      7.58 kcal/mol|
|  sn= 6 | S(rot)=       0.01190977 Eh      7.47 kcal/mol|
|  sn= 7 | S(rot)=       0.01176423 Eh      7.38 kcal/mol|
|  sn= 8 | S(rot)=       0.01163815 Eh      7.30 kcal/mol|
|  sn= 9 | S(rot)=       0.01152694 Eh      7.23 kcal/mol|
|  sn=10 | S(rot)=       0.01142746 Eh      7.17 kcal/mol|
|  sn=11 | S(rot)=       0.01133747 Eh      7.11 kcal/mol|
|  sn=12 | S(rot)=       0.01125532 Eh      7.06 kcal/mol|
 linear molecules ---------------------------------------
|  Dinfh | S(rot)=       0.00852371 Eh      5.35 kcal/mol|
|  Cinfv | S(rot)=       0.00917817 Eh      5.76 kcal/mol|
 --------------------------------------------------------


-------------------
GIBBS FREE ENERGY
-------------------

The Gibbs free energy is G = H - T*S

Total enthalpy                    ...   -766.87150657 Eh 
Total entropy correction          ...     -0.03857611 Eh    -24.21 kcal/mol
-----------------------------------------------------------------------
Final Gibbs free energy         ...   -766.91008268 Eh

For completeness - the Gibbs free energy minus the electronic energy
G-E(el)                           ...      0.06395964 Eh     40.14 kcal/mol


Maximum memory used throughout the entire PROP-calculation: 114.8 MB

--------------------------------
SUGGESTED CITATIONS FOR THIS RUN
--------------------------------

Below you find a list of papers that are relevant to this ORCA run
We neither can nor want to force you to cite these papers, but we appreciate if you do
You receive ORCA, which is the product of decades of hard work by many enthusiastic individuals, for free
The only thing we kindly ask in return is that you cite our papers,
We deeply appreciate it, if you show your appreciation for ORCA by not just citing the generic ORCA reference.

Please note that relegating all ORCA citations to the supporting information does *not* help us.
SI sections are not indexed - citations you put there will not count into any citation statistics
But we need these citations in order to attract the funding resources that allow us to do what we are doing

Therefore, if you are a happy ORCA user, please consider citing a few of the papers listed below in the main body of your paper

In addition to the list printed below, the program has created the file C:\orca_jobs\ex1\B3LYP.bibtex that contains the list in bibtex format
You can import this file easily into all common literature databanks and citation aid programs


List of essential papers. We consider these as the minimum necessary citations

  1. Neese, F.
     Software update: the ORCA program system, version 6.0
     WIRES Comput. Molec. Sci. 2025 15(1), e70019
     doi.org/10.1002/wcms.7019

List of papers to cite with high priority. The work reported in these papers was absolutely
necessary for this run to complete.
Our perspective: the developers of density functionals and basis sets usually get cited in chemistry papers
Good! But without the algorithms to do something with them, the functionals or basis sets would not do anything.
Hence, in our opinion, the algorithm design and method developments papers are equally worthy of getting cited

  1. Neese, F.
     An improvement of the resolution of the identity approximation for the formation of the Coulomb matrix
     J. Comp. Chem. 2003 24(14), 1740-1747
     doi.org/10.1002/jcc.10318
  2. Neese, F.; Wennmohs, F.; Hansen, A.; Becker, U.
     Efficient, approximate and parallel Hartree-Fock and hybrid DFT calculations. A 'chain-of-spheres' algorithm for the Hartree-Fock exchange
     Chem. Phys. 2009 356(1-3), 98-109
     doi.org/10.1016/j.chemphys.2008.10.036
  3. Bykov, D.; Petrenko, T.; Izsak, R.; Kossmann, S.; Becker, U.; Valeev, E.; Neese, F.
     Efficient implementation of the analytic second derivatives of Hartree-Fock and hybrid DFT energies: a detailed analysis of different approximations
     Molec. Phys. 2015 113 , 1961-1977
     doi.org/10.1080/00268976.2015.1025114
  4. Helmich-Paris, B.; de Souza, B.; Neese, F.; Izsák, R.
     An improved chain of spheres for exchange algorithm
     J. Chem. Phys. 2021 155(10), 104109
     doi.org/10.1063/5.0058766
  5. Neese, F.
     The SHARK Integral Generation and Digestion System
     J. Comp. Chem. 2022 44(3), 381
     doi.org/10.1002/jcc.26942

List of suggested additional citations. These are papers that are important in the 'surrounding' of 
of this run, or papers that preceded the highly important papers. If you like your results we are grateful for a citation.

  1. Izsak, R.; Neese, F.
     An overlap fitted chain of spheres exchange method
     J. Chem. Phys. 2011 135 , 144105
     doi.org/10.1063/1.3646921
  2. Izsak, R.; Hansen, A.; Neese, F.
     The resolution of identity and chain of spheres approximations for the LPNO-CCSD singles Fock term
     Molec. Phys. 2012 110 , 2413-2417
     doi.org/10.1080/00268976.2012.687466
  3. Neese, F.
     The ORCA program system
     WIRES Comput. Molec. Sci. 2012 2(1), 73-78
     doi.org/10.1002/wcms.81
  4. Izsak, R.; Neese, F.; Klopper, W.
     Robust fitting techniques in the chain of spheres approximation to the Fock exchange: The role of the complementary space
     J. Chem. Phys. 2013 139 , 
     doi.org/10.1063/1.4819264
  5. Neese, F.
     Software update: the ORCA program system, version 4.0
     WIRES Comput. Molec. Sci. 2018 8(1), 1-6
     doi.org/10.1002/wcms.1327
  6. Neese, F.; Wennmohs, F.; Becker, U.; Riplinger, C.
     The ORCA quantum chemistry program package
     J. Chem. Phys. 2020 152(22), 224108
     doi.org/10.1063/5.0004608
  7. Neese, F.
     Software update: The ORCA program system—Version 5.0
     WIRES Comput. Molec. Sci. 2022 12(1), e1606
     doi.org/10.1002/wcms.1606

List of optional additional citations

  1. Neese, F.
     Approximate second-order SCF convergence for spin unrestricted wavefunctions
     Chem. Phys. Lett. 2000 325(1-3), 93-98
     doi.org/10.1016/s0009-2614(00)00662-x

Timings for individual modules:

Sum of individual times          ...      286.327 sec (=   4.772 min)
Startup calculation              ...       10.831 sec (=   0.181 min)   3.8 %
SCF iterations                   ...      128.853 sec (=   2.148 min)  45.0 %
Property integrals               ...       21.025 sec (=   0.350 min)   7.3 %
SCF Response                     ...       43.448 sec (=   0.724 min)  15.2 %
Property calculations            ...       39.259 sec (=   0.654 min)  13.7 %
SCF Gradient evaluation          ...       42.793 sec (=   0.713 min)  14.9 %
Geometry relaxation              ...        0.118 sec (=   0.002 min)   0.0 %
                             ****ORCA TERMINATED NORMALLY****
TOTAL RUN TIME: 0 days 0 hours 4 minutes 48 seconds 687 msec
