
                                 *****************
                                 * O   R   C   A *
                                 *****************

                                            #,                                       
                                            ###                                      
                                            ####                                     
                                            #####                                    
                                            ######                                   
                                           ########,                                 
                                     ,,################,,,,,                         
                               ,,#################################,,                 
                          ,,##########################################,,             
                       ,#########################################, ''#####,          
                    ,#############################################,,   '####,        
                  ,##################################################,,,,####,       
                ,###########''''           ''''###############################       
              ,#####''   ,,,,##########,,,,          '''####'''          '####       
            ,##' ,,,,###########################,,,                        '##       
           ' ,,###''''                  '''############,,,                           
         ,,##''                                '''############,,,,        ,,,,,,###''
      ,#''                                            '''#######################'''  
     '                                                          ''''####''''         
             ,#######,   #######,   ,#######,      ##                                
            ,#'     '#,  ##    ##  ,#'     '#,    #''#        ,####,    ,#,          
            ##       ##  ##   ,#'  ##            #'  '#       #'       ,# #          
            ##       ##  #######   ##           ,######,      #####,      #          
            '#,     ,#'  ##    ##  '#,     ,#' ,#      #,     #,   #      #          
             '#######'   ##     ##  '#######'  #'      '#     '####' #    #          



                #########################################################
                #                        -***-                          #
                #          Department of theory and spectroscopy        #
                #                                                       #
                #                      Frank Neese                      #
                #                                                       #
                #     Directorship, Architecture, Infrastructure        #
                #                    SHARK, DRIVERS                     #
                #        Core code/Algorithms in most modules           #
                #                                                       #
                #        Max Planck Institute fuer Kohlenforschung      #
                #                Kaiser Wilhelm Platz 1                 #
                #                 D-45470 Muelheim/Ruhr                 #
                #                      Germany                          #
                #                                                       #
                #                  All rights reserved                  #
                #                        -***-                          #
                #########################################################


                         Program Version 6.1.0  -  RELEASE   -


 With contributions from (in alphabetic order):
[Max-Planck-Institut fuer Kohlenforschung]                               
  Daniel Aravena         : Magnetic Suceptibility                        
  Michael Atanasov       : Ab Initio Ligand Field Theory (pilot matlab implementation)
  Alexander A. Auer      : GIAO ZORA, VPT2 properties, NMR spectrum      
  Ute Becker             : All parallelization in ORCA, NUMFREQ, NUMCALC 
  Giovanni Bistoni       : ED, misc. LED, open-shell LED, HFLD           
  Dmytro Bykov           : pre 5.0 version of the SCF Hessian            
  Marcos Casanova-Páez   : Triplet and SCS-CIS(D). UHF-(DLPNO)-IP/EA/STEOM-CCSD. UHF-CVS-IP/STEOM-CCSD   
  Vijay G. Chilkuri      : MRCI spin determinant printing, contributions to CSF-ICE 
  Pauline Colinet        : FMM embedding                                 
  Dipayan Datta          : RHF DLPNO-CCSD density                        
  Achintya Kumar Dutta   : EOM-CC, STEOM-CC                              
  Nicolas Foglia         : Exact transition moments, OPA infrastructure, MCD improvements    
  Dmitry Ganyushin       : Spin-Orbit,Spin-Spin,Magnetic field MRCI      
  Miquel Garcia-Rates    : C-PCM and meta-GGA Hessian, CCSD/C-PCM, Gaussian charge scheme 
  Tiago L. C. Gouveia    : GS-ROHF, GS-ROCIS                             
  Yang Guo               : DLPNO-NEVPT2, F12-NEVPT2, CIM, IAO-localization        
  Andreas Hansen         : Spin unrestricted coupled pair/coupled cluster methods 
  Ingolf Harden          : AUTO-CI MPn and infrastructure                
  Benjamin Helmich-Paris : MC-RPA, TRAH-(SCF,CASSCF), AVAS, COSX integrals, SCF dyn. polar., MC-PDFT, srDFT 
  Lee Huntington         : MR-EOM, pCC                                   
  Robert Izsak           : Overlap fitted RIJCOSX, COSX-SCS-MP3, EOM     
  Riya Kayal             : Wick's Theorem for AUTO-CI, AUTO-CI UHF-CCSDT 
  Emily Kempfer          : AUTO-CI RHF CISDT and CCSDT, approximate NEVPT4
  Christian Kollmar      : KDIIS, OOCD, Brueckner-CCSD(T), CCSD density, CASPT2, CASPT2-K, improved NEVPT2 
  Axel Koslowski         : Symmetry handling                             
  Simone Kossmann        : meta-GGA functionals, TD-DFT gradient, OOMP2, (MP2 Hessian; deprecated post 5.0) 
  Lucas Lang             : DCDCAS, Hyperfine gauge corrections, ICE-SOC+SSC
  Marvin Lechner         : AUTO-CI (C++ implementation), FIC-MRCC        
  Spencer Leger          : CASSCF response                               
  Dagmar Lenk            : GEPOL surface, SMD, ORCA-2-JSON               
  Dimitrios Liakos       : Extrapolation schemes; Compound Job, Property file
  Dimitrios Manganas     : Further ROCIS development; embedding schemes. LFT, Crystal Embedding 
  Dimitrios Pantazis     : SARC Basis sets                               
  Anastasios Papadopoulos: AUTO-CI, single reference methods and gradients 
  Taras Petrenko         : pre 6.0 DFT Hessian and TD-DFT gradient,  ECA, NRVS 
  Petra Pikulova         : Analytic Raman intensities                    
  Peter Pinski           : DLPNO-MP2, DLPNO-MP2 Gradient                 
  Shashank Vittal Rao    : ES-AILFT, MagRelax                            
  Christoph Reimann      : Effective Core Potentials                     
  Marius Retegan         : Local ZFS, SOC                                
  Christoph Riplinger    : Optimizer, TS searches, QM/MM, DLPNO-CCSD(T), (RO)-DLPNO pert. Triples 
  Michael Roemelt        : Original ROCIS implementation, recursive CI coupling coefficients
  Masaaki Saitow         : Open-shell DLPNO-CCSD energy and density      
  Barbara Sandhoefer     : DKH picture change effects                    
  Yorick L. A. Schmerwitz: GMF and freeze-and-release deltaSCF, NEB S-IDPP initial path                    
  Kantharuban Sivalingam : CASSCF convergence/infrastructure, NEVPT2, NEVPT3, NEVPT4(SD), FIC-MRCI and CEPA variants
  Bernardo de Souza      : ESD, SOC TD-DFT                               
  Georgi L. Stoychev     : AutoAux, RI-MP2 NMR, DLPNO-MP2 response, X2C  
  Van Anh Tran           : RI-MP2 g-tensors                              
  Willem Van den Heuvel  : Paramagnetic NMR                              
  Zikuan Wang            : NOTCH, Electric field optimization            
  Frank Wennmohs         : Technical directorship and infrastructure     
  Hang Xu                : AUTO-CI-Response properties                   
                                                                         
[FACCTs GmbH]                                                            
  Markus Bursch, Nicolas Foglia, Miquel Garcia-Rates, Ingolf Harden, Hagen Neugebauer, Anastasios Papadopoulos, 
  Christoph Riplinger, Bernardo de Souza, Georgi L. Stoychev                                                    
                                                                 
  APM, various basis sets, CI-OPT, improved COSX, DLPNO-Multilevel,           
  DOCKER, DRACO, updates on ESD, Fragmentator, GOAT, IRC, LR-CPCM, L-BFGS, MBIS, meta-GGA TD-DFT gradient, ML-optimized integration grids, 
  MM, NACMEs, nearIR, NEB, NEB-TS, NL-DFT gradient (VV10), 2- and 3-layer-ONIOM, interface openCOSMO-RS, QMMM,   
  Crystal-QMMM, RESP, rigid body optimization, SF, symmetry and pop. for TD-DFT, various functionals, SOLVATOR                                   
                                                                         
[Other institutions]                                                     
  V. Asgeirsson          : NEB                                           
  Christoph Bannwarth    : sTDA-DFT, sTD-DFT, PBEh-3c, B97-3c, D3        
  Giovanni Bistoni       : ETS/NOCV, ADLD/ADEX, COVALED                  
  Martin Brehm           : Molecular dynamics                            
  Ronald Cardenas        : ETS/NOCV                                      
  Martina Colucci        : COVALED                                       
  Sebastian Ehlert       : rSCAN, r2SCAN, r2SCAN-3c, D4, dhf basis sets  
  Marvin Friede          : D4 for Fr, Ra, Ac-Lr                          
  Lars Goerigk           : TD-DFT with DH, B97 family of functionals     
  Stefan Grimme          : VdW corrections, initial TS optimization, DFT functionals, gCP, sTDA/sTD-DF 
  Waldemar Hujo          : DFT-NL                                        
  H. Jonsson             : NEB                                           
  Holger Kruse           : gCP                                           
  Marcel Mueller         : wB97X-3c, vDZP basis set                      
  Hagen Neugebauer       : wr2SCAN, Native XTB                           
  Gianluca Regni         : ADLD/ADEX                                     
  Tobias Risthaus        : pre 6.0 range-separated hybrid DFT and stability analysis
  Lukas Wittmann         : regularized MP2, r2SCAN double-hybrids, wr2SCAN        
                                                                         
We gratefully acknowledge several colleagues who have allowed us to      
interface, adapt or use parts of their codes:                            
  Ed Valeev, F. Pavosevic, A. Kumar             : LibInt (2-el integral package), F12 methods 
  Garnet Chan, S. Sharma, J. Yang, R. Olivares  : DMRG                   
  Ulf Ekstrom                                   : XCFun DFT Library      
  Mihaly Kallay                                 : mrcc  (arbitrary order and MRCC methods)
  Frank Weinhold                                : gennbo (NPA and NBO analysis)           
  Simon Mueller                                 : openCOSMO-RS                            
  Christopher J. Cramer and Donald G. Truhlar   : smd solvation model                     
  S Lehtola, MJT Oliveira, MAL Marques          : LibXC Library                           
  Liviu Ungur et al                             : ANISO software                          


 Your calculation uses the libint2 library for the computation of 2-el integrals
 For citations please refer to: http://libint.valeyev.net

 Your ORCA version has been built with support for libXC version: 7.0.0
 For citations please refer to: https://libxc.gitlab.io

 This ORCA versions uses:
   CBLAS   interface :  Fast vector & matrix operations
   LAPACKE interface :  Fast linear algebra routines
   Shared memory     :  Shared parallel matrices


  ***********************************
  * Starting time: Thu Sep 11 17:48:36 2025
  * Host name:     DESKTOP-SI45VP7
  * Process ID:    30208
  * Working dir.:  C:\orca_jobs\ex1
  ***********************************

NOTE: MaxCore=2500 MB was set to SCF,MP2,MDCI,CIPSI,MRCI,RASCI and CIS
      => If you want to overwrite this, your respective input block should be placed after the MaxCore statement
================================================================================

----- Orbital basis set information -----
Your calculation utilizes the basis: def2-TZVP
   F. Weigend and R. Ahlrichs, Phys. Chem. Chem. Phys. 7, 3297 (2005).

----- AuxJ basis set information -----
Your calculation utilizes the auxiliary basis: def2/J
   H-Rn: F. Weigend, Phys. Chem. Chem. Phys. 8, 1057 (2006).
   Fr-Lr: K. Eichkorn, F. Weigend, O. Treutler, R. Ahlrichs; Theor. Chem. Acc. 97, 119 (1997).

================================================================================
                                        WARNINGS
                       Please study these warnings very carefully!
================================================================================


WARNING: Geometry Optimization
  ===> : Switching off AutoStart
         For restart on a previous wavefunction, please use MOREAD

================================================================================
                                       INPUT FILE
================================================================================
NAME = C:\orca_jobs\ex1\B3LYP(water).INP
|  1> ! UKS B3LYP def2-TZVP RIJCOSX def2/J Opt Freq TightSCF CPCM(Water)
|  2> 
|  3> %pal 
|  4>   nprocs 20
|  5> end
|  6> %maxcore 2500
|  7> 
|  8> %scf
|  9>   MaxIter   1000
| 10> end
| 11> 
| 12> %output
| 13>   Print[P_Mulliken] 1
| 14>   Print[P_Loewdin] 1
| 15>   XYZFile true
| 16> end
| 17> 
| 18> 
| 19> * xyz 0 1
| 20> C      0.02296308   -1.85996995    0.00000000
| 21> C      0.00798067   -1.16244008    1.20816295
| 22> C     -0.02331454    0.23192082    1.20824560
| 23> C     -0.03844324    0.92941901    0.00000000
| 24> C     -0.02331454    0.23192082   -1.20824560
| 25> C      0.00798067   -1.16244008   -1.20816295
| 26> H      0.04718689   -2.95931340    0.00000000
| 27> H      0.01953870   -1.71237863    2.16035820
| 28> H     -0.03575925    0.78177634   -2.16050635
| 29> H      0.01953870   -1.71237863   -2.16035820
| 30> O     -0.07045338    2.35906064    0.00000000
| 31> H      0.82708134    2.69969202    0.00000000
| 32> Cl    -0.04323187    1.11194551    2.73230591
| 33> *
| 34> 
| 35> 
| 36>                          ****END OF INPUT****
================================================================================

                       *****************************
                       * Geometry Optimization Run *
                       *****************************

Geometry optimization settings:
Update method            Update   .... BFGS
Choice of coordinates    CoordSys .... (2022) Redundant Internals
Initial Hessian          InHess   .... Almloef's Model
Max. no of cycles        MaxIter  .... 50

Convergence Tolerances:
Energy Change            TolE     ....  5.0000e-06 Eh
Max. Gradient            TolMAXG  ....  3.0000e-04 Eh/bohr
RMS Gradient             TolRMSG  ....  1.0000e-04 Eh/bohr
Max. Displacement        TolMAXD  ....  4.0000e-03 bohr
RMS Displacement         TolRMSD  ....  2.0000e-03 bohr
Strict Convergence                .... False

------------------------------------------------------------------------------
                        ORCA OPTIMIZATION COORDINATE SETUP
------------------------------------------------------------------------------

The optimization will be done in redundant internal coordinates (2022)
Making redundant internal coordinates   ...  (2022 redundants) done
Evaluating the initial hessian          ...  (Almloef) done
Evaluating the coordinates              ...  done
Calculating the B-matrix                .... done
Calculating the G-matrix                .... done
The number of degrees of freedom        ....   58

    -----------------------------------------------------------------
                    Redundant Internal Coordinates


    -----------------------------------------------------------------
         Definition                    Initial Value    Approx d2E/dq
    -----------------------------------------------------------------
      1. B(C   1,C   0)                  1.3951         0.613098   
      2. B(C   2,C   1)                  1.3947         0.614074   
      3. B(C   3,C   2)                  1.3952         0.612969   
      4. B(C   4,C   3)                  1.3952         0.612969   
      5. B(C   5,C   4)                  1.3947         0.614074   
      6. B(C   5,C   0)                  1.3951         0.613098   
      7. B(H   6,C   0)                  1.0996         0.347609   
      8. B(H   7,C   1)                  1.0997         0.347551   
      9. B(H   8,C   4)                  1.0997         0.347519   
     10. B(H   9,C   5)                  1.0997         0.347551   
     11. B(O  10,C   3)                  1.4300         0.483123   
     12. B(H  11,O  10)                  0.9600         0.519958   
     13. B(Cl 12,C   2)                  1.7600         0.360100   
     14. A(C   1,C   0,C   5)          119.9888         0.432322   
     15. A(C   1,C   0,H   6)          120.0056         0.350146   
     16. A(C   5,C   0,H   6)          120.0056         0.350146   
     17. A(C   0,C   1,C   2)          120.0090         0.432445   
     18. A(C   2,C   1,H   7)          120.0106         0.350230   
     19. A(C   0,C   1,H   7)          119.9804         0.350136   
     20. A(C   3,C   2,Cl 12)          119.9877         0.410906   
     21. A(C   1,C   2,Cl 12)          120.0128         0.411037   
     22. A(C   1,C   2,C   3)          119.9995         0.432429   
     23. A(C   2,C   3,O  10)          120.0029         0.411606   
     24. A(C   2,C   3,C   4)          119.9942         0.432289   
     25. A(C   4,C   3,O  10)          120.0029         0.411606   
     26. A(C   5,C   4,H   8)          120.0128         0.350225   
     27. A(C   3,C   4,H   8)          119.9877         0.350118   
     28. A(C   3,C   4,C   5)          119.9995         0.432429   
     29. A(C   4,C   5,H   9)          120.0106         0.350230   
     30. A(C   0,C   5,H   9)          119.9804         0.350136   
     31. A(C   0,C   5,C   4)          120.0090         0.432445   
     32. A(C   3,O  10,H  11)          109.5000         0.354684   
     33. D(H   7,C   1,C   0,C   5)    179.9847         0.025976   
     34. D(H   7,C   1,C   0,H   6)     -0.0520         0.025976   
     35. D(C   2,C   1,C   0,H   6)   -179.9729         0.025976   
     36. D(C   2,C   1,C   0,C   5)      0.0638         0.025976   
     37. D(Cl 12,C   2,C   1,C   0)    179.9619         0.026063   
     38. D(C   3,C   2,C   1,C   0)     -0.0568         0.026063   
     39. D(C   3,C   2,C   1,H   7)   -179.9777         0.026063   
     40. D(Cl 12,C   2,C   1,H   7)      0.0410         0.026063   
     41. D(O  10,C   3,C   2,Cl 12)     -0.0151         0.025964   
     42. D(O  10,C   3,C   2,C   1)   -179.9964         0.025964   
     43. D(C   4,C   3,C   2,Cl 12)   -179.9688         0.025964   
     44. D(C   4,C   3,C   2,C   1)      0.0499         0.025964   
     45. D(H   8,C   4,C   3,C   2)    179.9688         0.025964   
     46. D(C   5,C   4,C   3,O  10)    179.9964         0.025964   
     47. D(C   5,C   4,C   3,C   2)     -0.0499         0.025964   
     48. D(H   8,C   4,C   3,O  10)      0.0151         0.025964   
     49. D(H   9,C   5,C   4,H   8)     -0.0410         0.026063   
     50. D(C   0,C   5,C   4,H   8)   -179.9619         0.026063   
     51. D(C   0,C   5,C   4,C   3)      0.0568         0.026063   
     52. D(H   9,C   5,C   0,H   6)      0.0520         0.025976   
     53. D(H   9,C   5,C   0,C   1)   -179.9847         0.025976   
     54. D(H   9,C   5,C   4,C   3)    179.9777         0.026063   
     55. D(C   4,C   5,C   0,H   6)    179.9729         0.025976   
     56. D(C   4,C   5,C   0,C   1)     -0.0638         0.025976   
     57. D(H  11,O  10,C   3,C   4)    -90.0232         0.016748   
     58. D(H  11,O  10,C   3,C   2)     90.0232         0.016748   
    -----------------------------------------------------------------

Number of atoms                         .... 13
Number of degrees of freedom            .... 58


         *************************************************************
         *                GEOMETRY OPTIMIZATION CYCLE   1            *
         *************************************************************
---------------------------------
CARTESIAN COORDINATES (ANGSTROEM)
---------------------------------
  C      0.022963   -1.859970    0.000000
  C      0.007981   -1.162440    1.208163
  C     -0.023315    0.231921    1.208246
  C     -0.038443    0.929419    0.000000
  C     -0.023315    0.231921   -1.208246
  C      0.007981   -1.162440   -1.208163
  H      0.047187   -2.959313    0.000000
  H      0.019539   -1.712379    2.160358
  H     -0.035759    0.781776   -2.160506
  H      0.019539   -1.712379   -2.160358
  O     -0.070453    2.359061    0.000000
  H      0.827081    2.699692    0.000000
  Cl    -0.043232    1.111946    2.732306

----------------------------
CARTESIAN COORDINATES (A.U.)
----------------------------
  NO LB      ZA    FRAG     MASS         X           Y           Z
   0 C     6.0000    0    12.011    0.043394   -3.514834    0.000000
   1 C     6.0000    0    12.011    0.015081   -2.196693    2.283097
   2 C     6.0000    0    12.011   -0.044058    0.438267    2.283253
   3 C     6.0000    0    12.011   -0.072647    1.756347    0.000000
   4 C     6.0000    0    12.011   -0.044058    0.438267   -2.283253
   5 C     6.0000    0    12.011    0.015081   -2.196693   -2.283097
   6 H     1.0000    0     1.008    0.089170   -5.592292    0.000000
   7 H     1.0000    0     1.008    0.036923   -3.235927    4.082485
   8 H     1.0000    0     1.008   -0.067575    1.477343   -4.082765
   9 H     1.0000    0     1.008    0.036923   -3.235927   -4.082485
  10 O     8.0000    0    15.999   -0.133138    4.457979    0.000000
  11 H     1.0000    0     1.008    1.562957    5.101679    0.000000
  12 Cl   17.0000    0    35.453   -0.081696    2.101272    5.163310

--------------------------------
INTERNAL COORDINATES (ANGSTROEM)
--------------------------------
 C      0   0   0     0.000000000000     0.00000000     0.00000000
 C      1   0   0     1.395145191693     0.00000000     0.00000000
 C      2   1   0     1.394712055031   120.00898343     0.00000000
 C      3   2   1     1.395202505924   119.99948733   359.94315105
 C      4   3   2     1.395202505924   119.99421589     0.04987134
 C      5   4   3     1.394712055031   119.99948733   359.95012866
 H      1   2   3     1.099610300983   120.00559839   180.02707121
 H      2   1   3     1.099655305519   119.98041876   179.92089963
 H      5   4   3     1.099680180631   119.98771505   179.96882466
 H      6   5   4     1.099655305519   120.01055052   179.97772457
 O      4   3   2     1.429999943808   120.00288395   180.00355601
 H     11   4   3     0.959999120128   109.50004299    90.02315969
 Cl     3   2   1     1.759999995330   120.01279489   179.96185165

---------------------------
INTERNAL COORDINATES (A.U.)
---------------------------
 C      0   0   0     0.000000000000     0.00000000     0.00000000
 C      1   0   0     2.636442329357     0.00000000     0.00000000
 C      2   1   0     2.635623819687   120.00898343     0.00000000
 C      3   2   1     2.636550637557   119.99948733   359.94315105
 C      4   3   2     2.636550637557   119.99421589     0.04987134
 C      5   4   3     2.635623819687   119.99948733   359.95012866
 H      1   2   3     2.077962322897   120.00559839   180.02707121
 H      2   1   3     2.078047369144   119.98041876   179.92089963
 H      5   4   3     2.078094376293   119.98771505   179.96882466
 H      6   5   4     2.078047369144   120.01055052   179.97772457
 O      4   3   2     2.702308265321   120.00288395   180.00355601
 H     11   4   3     1.814135425847   109.50004299    90.02315969
 Cl     3   2   1     3.325917986876   120.01279489   179.96185165

---------------------
BASIS SET INFORMATION
---------------------
There are 4 groups of distinct atoms

 Group   1 Type C   : 11s6p2d1f contracted to 5s3p2d1f pattern {62111/411/11/1}
 Group   2 Type H   : 5s1p contracted to 3s1p pattern {311/1}
 Group   3 Type O   : 11s6p2d1f contracted to 5s3p2d1f pattern {62111/411/11/1}
 Group   4 Type Cl  : 14s9p3d1f contracted to 5s5p2d1f pattern {73211/51111/21/1}

Atom   0C    basis set group =>   1
Atom   1C    basis set group =>   1
Atom   2C    basis set group =>   1
Atom   3C    basis set group =>   1
Atom   4C    basis set group =>   1
Atom   5C    basis set group =>   1
Atom   6H    basis set group =>   2
Atom   7H    basis set group =>   2
Atom   8H    basis set group =>   2
Atom   9H    basis set group =>   2
Atom  10O    basis set group =>   3
Atom  11H    basis set group =>   2
Atom  12Cl   basis set group =>   4
---------------------------------
AUXILIARY/J BASIS SET INFORMATION
---------------------------------
There are 4 groups of distinct atoms

 Group   1 Type C   : 12s5p4d2f1g contracted to 6s4p3d1f1g pattern {711111/2111/211/2/1}
 Group   2 Type H   : 5s2p1d contracted to 3s1p1d pattern {311/2/1}
 Group   3 Type O   : 12s5p4d2f1g contracted to 6s4p3d1f1g pattern {711111/2111/211/2/1}
 Group   4 Type Cl  : 14s5p5d2f1g contracted to 8s4p3d1f1g pattern {71111111/2111/311/2/1}

Atom   0C    basis set group =>   1
Atom   1C    basis set group =>   1
Atom   2C    basis set group =>   1
Atom   3C    basis set group =>   1
Atom   4C    basis set group =>   1
Atom   5C    basis set group =>   1
Atom   6H    basis set group =>   2
Atom   7H    basis set group =>   2
Atom   8H    basis set group =>   2
Atom   9H    basis set group =>   2
Atom  10O    basis set group =>   3
Atom  11H    basis set group =>   2
Atom  12Cl   basis set group =>   4


           ************************************************************
           *        Program running with 20 parallel MPI-processes    *
           *              working on a common directory               *
           ************************************************************
------------------------------------------------------------------------------
                             ORCA STARTUP CALCULATIONS
                           -- RI-GTO INTEGRALS CHOSEN --
------------------------------------------------------------------------------
------------------------------------------------------------------------------
                   ___                                                        
                  /   \      - P O W E R E D   B Y -                         
                 /     \                                                     
                 |  |  |   _    _      __       _____    __    __             
                 |  |  |  | |  | |    /  \     |  _  \  |  |  /  |          
                  \  \/   | |  | |   /    \    | | | |  |  | /  /          
                 / \  \   | |__| |  /  /\  \   | |_| |  |  |/  /          
                |  |  |   |  __  | /  /__\  \  |    /   |      \           
                |  |  |   | |  | | |   __   |  |    \   |  |\   \          
                \     /   | |  | | |  |  |  |  | |\  \  |  | \   \       
                 \___/    |_|  |_| |__|  |__|  |_| \__\ |__|  \__/        
                                                                              
                      - O R C A' S   B I G   F R I E N D -                    
                                      &                                       
                       - I N T E G R A L  F E E D E R -                       
                                                                              
 v1 FN, 2020, v2 2021, v3 2022-2024                                           
------------------------------------------------------------------------------


----------------------
SHARK INTEGRAL PACKAGE
----------------------

Number of atoms                             ...     13
Number of basis functions                   ...    284
Number of shells                            ...    110
Maximum angular momentum                    ...      3
Integral batch strategy                     ... SHARK/LIBINT Hybrid
RI-J (if used) integral strategy            ... SPLIT-RIJ (Revised 2003 algorithm where possible)
Printlevel                                  ...      1
Contraction scheme used                     ... SEGMENTED contraction
Prescreening option                         ... SCHWARTZ
   Thresh                                   ... 2.500e-11
   Tcut                                     ... 2.500e-12
   Tpresel                                  ... 2.500e-12 
Coulomb Range Separation                    ... NOT USED
Exchange Range Separation                   ... NOT USED
Multipole approximations                    ... NOT USED
Finite Nucleus Model                        ... NOT USED
CABS basis                                  ... NOT available
Auxiliary Coulomb fitting basis             ... AVAILABLE
   # of basis functions in Aux-J            ...    449
   # of shells in Aux-J                     ...    147
   Maximum angular momentum in Aux-J        ...      4
Auxiliary J/K fitting basis                 ... NOT available
Auxiliary Correlation fitting basis         ... NOT available
Auxiliary 'external' fitting basis          ... NOT available

Checking pre-screening integrals            ... done (  0.0 sec) Dimension = 110
   => SHARK Basis and OBASIS are compatible. Storing Pre-screening
Shell pair information
Shell pair cut-off parameter TPreSel        ...   2.5e-12
Total number of shell pairs                 ...      6105
Shell pairs after pre-screening             ...      5590
Total number of primitive shell pairs       ...     19708
Primitive shell pairs kept                  ...     13396
          la=0 lb=0:   1331 shell pairs
          la=1 lb=0:   1557 shell pairs
          la=1 lb=1:    468 shell pairs
          la=2 lb=0:    824 shell pairs
          la=2 lb=1:    476 shell pairs
          la=2 lb=2:    132 shell pairs
          la=3 lb=0:    404 shell pairs
          la=3 lb=1:    236 shell pairs
          la=3 lb=2:    126 shell pairs
          la=3 lb=3:     36 shell pairs

Checking whether 4 symmetric matrices of dimension 284 fit in memory
:Max Core in MB      =   2500.00
 MB in use           =      9.05
 MB left             =   2490.95
 MB needed           =      1.24
 Data fit in memory  = YES
Calculating RI/J V-Matrix + Cholesky decomp.... done (  0.0 sec)
Calculating Nuclear repulsion               ... done (  0.0 sec) ENN=    401.810818027598 Eh

Diagonalization of the overlap matrix:
Smallest eigenvalue                        ... 1.041e-05
Time for diagonalization                   ...    0.004 sec
Threshold for overlap eigenvalues          ... 1.000e-07
Number of eigenvalues below threshold      ... 0
Time for construction of square roots      ...    0.004 sec
Total time needed                          ...    0.012 sec

-------------------
DFT GRID GENERATION
-------------------

General Integration Accuracy     IntAcc      ... 4.388
Radial Grid Type                 RadialGrid  ... OptM3 with GC (2021)
Angular Grid (max. ang.)         AngularGrid ... 4 (Lebedev-302)
Angular grid pruning method      GridPruning ... 4 (adaptive)
Weight generation scheme         WeightScheme... mBecke (2022)
Basis function cutoff            BFCut       ... 1.0000e-11
Integration weight cutoff        WCut        ... 1.0000e-14
Partially contracted basis set               ... off
Rotationally invariant grid construction     ... off
Angular grids for H and He will be reduced by one unit

Total number of grid points                  ...    65626
Total number of batches                      ...     1031
Average number of points per batch           ...       63
Average number of grid points per atom       ...     5048

--------------------
COSX GRID GENERATION
--------------------

GRIDX 1
-------
General Integration Accuracy     IntAcc      ... 3.816
Radial Grid Type                 RadialGrid  ... OptM3 with GC (2021)
Angular Grid (max. ang.)         AngularGrid ... 1 (Lebedev-50)
Angular grid pruning method      GridPruning ... 4 (adaptive)
Weight generation scheme         WeightScheme... mBecke (2022)
Basis function cutoff            BFCut       ... 1.0000e-11
Integration weight cutoff        WCut        ... 1.0000e-14
Partially contracted basis set               ... on
Rotationally invariant grid construction     ... off
Angular grids for H and He will be reduced by one unit

Total number of grid points                  ...     9411
Total number of batches                      ...       79
Average number of points per batch           ...      119
Average number of grid points per atom       ...      724
UseSFitting                                  ... on

GRIDX 2
-------
General Integration Accuracy     IntAcc      ... 4.020
Radial Grid Type                 RadialGrid  ... OptM3 with GC (2021)
Angular Grid (max. ang.)         AngularGrid ... 2 (Lebedev-110)
Angular grid pruning method      GridPruning ... 4 (adaptive)
Weight generation scheme         WeightScheme... mBecke (2022)
Basis function cutoff            BFCut       ... 1.0000e-11
Integration weight cutoff        WCut        ... 1.0000e-14
Partially contracted basis set               ... on
Rotationally invariant grid construction     ... off
Angular grids for H and He will be reduced by one unit

Total number of grid points                  ...    18434
Total number of batches                      ...      150
Average number of points per batch           ...      122
Average number of grid points per atom       ...     1418
UseSFitting                                  ... on

GRIDX 3
-------
General Integration Accuracy     IntAcc      ... 4.338
Radial Grid Type                 RadialGrid  ... OptM3 with GC (2021)
Angular Grid (max. ang.)         AngularGrid ... 3 (Lebedev-194)
Angular grid pruning method      GridPruning ... 4 (adaptive)
Weight generation scheme         WeightScheme... mBecke (2022)
Basis function cutoff            BFCut       ... 1.0000e-11
Integration weight cutoff        WCut        ... 1.0000e-14
Partially contracted basis set               ... on
Rotationally invariant grid construction     ... off
Angular grids for H and He will be reduced by one unit

Total number of grid points                  ...    41229
Total number of batches                      ...      329
Average number of points per batch           ...      125
Average number of grid points per atom       ...     3171
UseSFitting                                  ... on
Grids setup in   0.5 sec
Initializing property integral containers    ... done (  0.0 sec)

SHARK setup successfully completed in   0.6 seconds

Maximum memory used throughout the entire STARTUP-calculation: 21.8 MB


           ************************************************************
           *        Program running with 20 parallel MPI-processes    *
           *              working on a common directory               *
           ************************************************************
-------------------------------------------------------------------------------
                                 ORCA GUESS
                   Start orbitals & Density for SCF / CASSCF
-------------------------------------------------------------------------------

------------
SCF SETTINGS
------------
Hamiltonian:
 Density Functional     Method          .... DFT(GTOs)
 Exchange Functional    Exchange        .... B88
   X-Alpha parameter    XAlpha          ....  0.666667
   Becke's b parameter  XBeta           ....  0.004200
 Correlation Functional Correlation     .... LYP
 LDA part of GGA corr.  LDAOpt          .... VWN-5
 Gradients option       PostSCFGGA      .... off
 Hybrid DFT is turned on
   Fraction HF Exchange ScalHFX         ....  0.200000
   Scaling of DF-GGA-X  ScalDFX         ....  0.720000
   Scaling of DF-GGA-C  ScalDFC         ....  0.810000
   Scaling of DF-LDA-C  ScalLDAC        ....  1.000000
   Perturbative correction              ....  0.000000
   NL short-range parameter             ....  4.800000
 RI-approximation to the Coulomb term is turned on
   Number of AuxJ basis functions       .... 449
   RIJ-COSX (HFX calculated with COS-X)).... on


General Settings:
 Integral files         IntName         .... C:\orca_jobs\ex1\B3LYP(water)
 Hartree-Fock type      HFTyp           .... UHF
 Total Charge           Charge          ....    0
 Multiplicity           Mult            ....    1
 Number of Electrons    NEL             ....   66
 Basis Dimension        Dim             ....  284
 Nuclear Repulsion      ENuc            ....    401.8108180276 Eh

Convergence Acceleration:
 AO-DIIS                CNVDIIS         .... on
   Start iteration      DIISMaxIt       ....    12
   Startup error        DIISStart       ....  0.200000
   # of expansion vecs  DIISMaxEq       ....     5
   Bias factor          DIISBfac        ....   1.050
   Max. coefficient     DIISMaxC        ....  10.000
 MO-DIIS                CNVKDIIS        .... off
 Trust-Rad. Augm. Hess. CNVTRAH         .... auto
   Auto Start mean grad. ratio tolernc. ....  1.125000
   Auto Start start iteration           ....    50
   Auto Start num. interpolation iter.  ....    10
   Max. Number of Micro iterations      ....    24
   Max. Number of Macro iterations      .... Maxiter - #DIIS iter
   Number of Davidson start vectors     ....     2
   Converg. threshold    (grad. norm)   ....   1.000e-05
   Grad. Scal. Fac. for Micro threshold ....   0.100
   Minimum threshold for Micro iter.    ....   1.000e-02
   NR start threshold (gradient norm)   ....   1.000e-04
   Initial trust radius                 ....   0.400
   Minimum AH scaling param. (alpha)    ....   1.000
   Maximum AH scaling param. (alpha)    .... 1000.000
   Quad. conv. algorithm                .... NR
   White noise on init. David. guess    .... on
   Maximum white noise                  ....   0.010
   Pseudo random numbers                .... off
   Inactive MOs                         .... canonical
   Orbital update algorithm             .... Taylor
   Preconditioner                       .... Diag
   Full preconditioner red. dimension   ....   250
 SOSCF                 CNVSOSCF           .... on
   Start iteration     SOSCFMaxIt         ....   150
   Startup grad/error  SOSCFStart         ....  0.003300
   Hessian update      SOSCFHessUp        .... L-BFGS
   Autom. constraints  SOSCFAutoConstrain .... off
 Level Shifting         CNVShift        .... on
   Level shift para.    LevelShift      ....    0.2500
   Turn off err/grad.   ShiftErr        ....    0.0010
 Zerner damping         CNVZerner       .... off
 Static damping         CNVDamp         .... on
   Fraction old density DampFac         ....    0.7000
   Max. Damping (<1)    DampMax         ....    0.9800
   Min. Damping (>=0)   DampMin         ....    0.0000
   Turn off err/grad.   DampErr         ....    0.1000

SCF Procedure:
 Maximum # iterations   MaxIter         ....  1000
 SCF integral mode      SCFMode         .... Direct
   Integral package                     .... SHARK and LIBINT hybrid scheme
 Reset frequency        DirectResetFreq ....    20
 Integral Threshold     Thresh          ....  2.500e-11 Eh
 Primitive CutOff       TCut            ....  2.500e-12 Eh

Convergence Tolerance:
 Convergence Check Mode ConvCheckMode   .... Total+1el-Energy
 Convergence forced     ConvForced      .... 0
 Energy Change          TolE            ....  1.000e-08 Eh
 1-El. energy change                    ....  1.000e-05 Eh
 Orbital Gradient       TolG            ....  1.000e-05
 Orbital Rotation angle TolX            ....  1.000e-05
 DIIS Error             TolErr          ....  5.000e-07

------------------------------
INITIAL GUESS: MODEL POTENTIAL
------------------------------
Loading Hartree-Fock densities                     ... done
Calculating cut-offs                               ... done
Initializing the effective Hamiltonian             ... done
Setting up the integral package (SHARK)            ... done
Starting the Coulomb interaction                   ... done (   0.0 sec)
Making the grid                                    ... done (   0.1 sec)
Mapping shells                                     ... done
Starting the XC term evaluation                    ... done (   0.0 sec)
  promolecular density results
     # of electrons  =     65.996887072
     EX              =    -68.035250651
     EC              =     -2.369501130
     EX+EC           =    -70.404751781
Transforming the Hamiltonian                       ... done (   0.0 sec)
Diagonalizing the Hamiltonian                      ... done (   0.0 sec)
Back transforming the eigenvectors                 ... done (   0.0 sec)
Now organizing SCF variables                       ... done
                      ------------------
                      INITIAL GUESS DONE (   0.2 sec)
                      ------------------
             **** ENERGY FILE WAS UPDATED (C:\orca_jobs\ex1\B3LYP(water).en.tmp) ****
Finished Guess after   0.3 sec
Maximum memory used throughout the entire GUESS-calculation: 14.0 MB


           ************************************************************
           *        Program running with 20 parallel MPI-processes    *
           *              working on a common directory               *
           ************************************************************

-------------------------------------------------------------------------------------------
                                      ORCA LEAN-SCF
                              memory conserving SCF solver
-------------------------------------------------------------------------------------------

--------------------
CPCM SOLVATION MODEL
--------------------
CPCM parameters:
  Epsilon                                         ...      80.1510
  Refrac                                          ...       1.3328
  Rsolv                                           ...       1.3000
  Surface type                                    ... GAUSSIAN VDW
  Discretization scheme                           ... Constant charge density
    Threshold for H atoms                         ...       5.0000 (charges/Ang^2)
    Threshold for non-H atoms                     ...       5.0000 (charges/Ang^2)
  Epsilon function type                           ...         CPCM
Solvent:                                          ... WATER
Radii:
  Scheme                                          ... Element-dependent radii
  Radius for C  used is    3.8550 Bohr (=   2.0400 Ang.)
  Radius for H  used is    2.4944 Bohr (=   1.3200 Ang.)
  Radius for O  used is    3.4469 Bohr (=   1.8240 Ang.)
  Radius for Cl used is    3.9684 Bohr (=   2.1000 Ang.)
Calculating surface                               ...        done! (  0.0s)
Cavity surface points                             ...         1383
Cavity Volume                                     ...     995.2946
Cavity Surface-area                               ...     563.6651
Calculating surface distance matrix               ...        done! (  0.0s)
Performing Cholesky decomposition & store         ...        done! (  0.0s)
Overall time for CPCM initialization              ...                 0.1s

----------------------------------------D-I-I-S--------------------------------------------
Iteration    Energy (Eh)           Delta-E    RMSDP     MaxDP     DIISErr   Damp  Time(sec)
-------------------------------------------------------------------------------------------
               ***  Starting incremental Fock matrix formation  ***
    1    -766.7812508216316019     0.00e+00  6.32e-03  7.89e-02  1.28e-01  0.700   0.8
    2    -766.8688691276017835    -8.76e-02  6.22e-03  8.47e-02  5.50e-02  0.700   0.6
                               ***Turning on AO-DIIS***
    3    -766.9042051053061186    -3.53e-02  2.32e-03  2.60e-02  1.70e-02  0.700   0.6
    4    -766.9249921051166439    -2.08e-02  3.22e-03  2.12e-02  8.75e-03  0.000   0.5
    5    -766.9705724190707770    -4.56e-02  1.32e-03  1.81e-02  3.40e-03  0.000   0.6
                              *** Initializing SOSCF ***
---------------------------------------S-O-S-C-F--------------------------------------
Iteration    Energy (Eh)           Delta-E    RMSDP     MaxDP     MaxGrad    Time(sec)
--------------------------------------------------------------------------------------
    6    -766.9708412060936098    -2.69e-04  3.95e-04  5.26e-03  6.16e-04     0.8
               *** Restarting incremental Fock matrix formation ***
    7    -766.9708346853121839     6.52e-06  4.15e-04  5.58e-03  2.13e-04     0.9
    8    -766.9708335638567860     1.12e-06  7.31e-05  9.59e-04  4.04e-04     1.0
    9    -766.9708375872971828    -4.02e-06  4.24e-05  5.47e-04  4.37e-05     0.8
   10    -766.9708375659570265     2.13e-08  1.35e-05  1.95e-04  3.99e-05     0.9
   11    -766.9708376447715636    -7.88e-08  4.32e-06  3.45e-05  1.01e-05     0.9
   12    -766.9708376488749764    -4.10e-09  5.43e-06  5.94e-05  9.72e-06     0.9
                 **** Energy Check signals convergence ****

               *****************************************************
               *                     SUCCESS                       *
               *           SCF CONVERGED AFTER  12 CYCLES          *
               *****************************************************

Recomputing exchange energy using gridx3       ... done (    0.677 sec)
Old exchange energy                            :    -13.723655354 Eh
New exchange energy                            :    -13.723664500 Eh
Exchange energy change after final integration :     -0.000009146 Eh
Total energy after final integration           :   -766.970846793 Eh
             **** ENERGY FILE WAS UPDATED (C:\orca_jobs\ex1\B3LYP(water).en.tmp) ****

----------------
TOTAL SCF ENERGY
----------------

Total Energy       :       -766.97084679342868 Eh          -20870.33777 eV

Components:
Nuclear Repulsion  :        401.81081802759792 Eh           10933.82822 eV
Electronic Energy  :      -1168.76992584997924 Eh          -31803.84656 eV
One Electron Energy:      -1848.79229512010852 Eh          -50308.19597 eV
Two Electron Energy:        680.02236927012939 Eh           18504.34941 eV
CPCM Dielectric    :         -0.01172982455916 Eh              -0.31918 eV

Virial components:
Potential Energy   :      -1531.73134274653921 Eh          -41680.52883 eV
Kinetic Energy     :        764.76049595311042 Eh           20810.19106 eV
Virial Ratio       :          2.00289025237576

DFT components:
N(Alpha)           :       33.000019498991 electrons
N(Beta)            :       33.000019498990 electrons
N(Total)           :       66.000038997981 electrons
E(X)               :      -54.527224312249 Eh       
E(C)               :       -2.791760339277 Eh       
E(XC)              :      -57.318984651526 Eh       

CPCM Solvation Model Properties:
Surface-charge          :         -0.02187045625746
Corrected charge        :          0.00000000000000
Outlying charge corr.   :          0.00003620605589 Eh               0.00099 eV
Free-energy (cav+disp)  :  This term is not implemented in the current solvation scheme

---------------
SCF CONVERGENCE
---------------

  Last Energy change         ...    4.1034e-09  Tolerance :   1.0000e-08
  Last MAX-Density change    ...    5.9351e-05  Tolerance :   1.0000e-07
  Last RMS-Density change    ...    5.4304e-06  Tolerance :   5.0000e-09
  Last DIIS Error            ...    6.1593e-04  Tolerance :   5.0000e-07
  Last Orbital Gradient      ...    9.7165e-06  Tolerance :   1.0000e-05
  Last Orbital Rotation      ...    9.6407e-06  Tolerance :   1.0000e-05


----------------------
UHF SPIN CONTAMINATION
----------------------

Warning: in a DFT calculation there is little theoretical justification to 
         calculate <S**2> as in Hartree-Fock theory. We will do it anyways
         but you should keep in mind that the values have only limited relevance

Expectation value of <S**2>     :    -0.000000
Ideal value S*(S+1) for S=0.0   :     0.000000
Deviation                       :    -0.000000

----------------
ORBITAL ENERGIES
----------------
                 SPIN UP ORBITALS
  NO   OCC          E(Eh)            E(eV) 
   0   1.0000    -101.531581     -2762.8148 
   1   1.0000     -19.146797      -521.0108 
   2   1.0000     -10.247327      -278.8439 
   3   1.0000     -10.240951      -278.6704 
   4   1.0000     -10.191237      -277.3177 
   5   1.0000     -10.186768      -277.1961 
   6   1.0000     -10.185157      -277.1522 
   7   1.0000     -10.184545      -277.1356 
   8   1.0000      -9.463282      -257.5090 
   9   1.0000      -7.224839      -196.5979 
  10   1.0000      -7.216458      -196.3698 
  11   1.0000      -7.216004      -196.3575 
  12   1.0000      -1.039022       -28.2732 
  13   1.0000      -0.889368       -24.2009 
  14   1.0000      -0.840285       -22.8653 
  15   1.0000      -0.753497       -20.5037 
  16   1.0000      -0.737045       -20.0560 
  17   1.0000      -0.621962       -16.9245 
  18   1.0000      -0.606513       -16.5041 
  19   1.0000      -0.543795       -14.7974 
  20   1.0000      -0.496869       -13.5205 
  21   1.0000      -0.484233       -13.1766 
  22   1.0000      -0.454137       -12.3577 
  23   1.0000      -0.433813       -11.8047 
  24   1.0000      -0.429068       -11.6755 
  25   1.0000      -0.388539       -10.5727 
  26   1.0000      -0.373989       -10.1768 
  27   1.0000      -0.369816       -10.0632 
  28   1.0000      -0.341354        -9.2887 
  29   1.0000      -0.322234        -8.7684 
  30   1.0000      -0.309593        -8.4244 
  31   1.0000      -0.263807        -7.1786 
  32   1.0000      -0.252973        -6.8837 
  33   0.0000      -0.026516        -0.7215 
  34   0.0000      -0.019724        -0.5367 
  35   0.0000       0.012621         0.3434 
  36   0.0000       0.049763         1.3541 
  37   0.0000       0.070159         1.9091 
  38   0.0000       0.086839         2.3630 
  39   0.0000       0.110034         2.9942 
  40   0.0000       0.120578         3.2811 
  41   0.0000       0.126991         3.4556 
  42   0.0000       0.137640         3.7454 
  43   0.0000       0.172558         4.6955 

                 SPIN DOWN ORBITALS
  NO   OCC          E(Eh)            E(eV) 
   0   1.0000    -101.531581     -2762.8148 
   1   1.0000     -19.146797      -521.0108 
   2   1.0000     -10.247327      -278.8439 
   3   1.0000     -10.240951      -278.6704 
   4   1.0000     -10.191237      -277.3177 
   5   1.0000     -10.186768      -277.1961 
   6   1.0000     -10.185157      -277.1522 
   7   1.0000     -10.184545      -277.1356 
   8   1.0000      -9.463282      -257.5090 
   9   1.0000      -7.224839      -196.5979 
  10   1.0000      -7.216458      -196.3698 
  11   1.0000      -7.216004      -196.3575 
  12   1.0000      -1.039022       -28.2732 
  13   1.0000      -0.889368       -24.2009 
  14   1.0000      -0.840285       -22.8653 
  15   1.0000      -0.753497       -20.5037 
  16   1.0000      -0.737045       -20.0560 
  17   1.0000      -0.621962       -16.9245 
  18   1.0000      -0.606513       -16.5041 
  19   1.0000      -0.543795       -14.7974 
  20   1.0000      -0.496869       -13.5205 
  21   1.0000      -0.484233       -13.1766 
  22   1.0000      -0.454137       -12.3577 
  23   1.0000      -0.433813       -11.8047 
  24   1.0000      -0.429068       -11.6755 
  25   1.0000      -0.388539       -10.5727 
  26   1.0000      -0.373989       -10.1768 
  27   1.0000      -0.369816       -10.0632 
  28   1.0000      -0.341354        -9.2887 
  29   1.0000      -0.322234        -8.7684 
  30   1.0000      -0.309593        -8.4244 
  31   1.0000      -0.263807        -7.1786 
  32   1.0000      -0.252973        -6.8837 
  33   0.0000      -0.026516        -0.7215 
  34   0.0000      -0.019724        -0.5367 
  35   0.0000       0.012621         0.3434 
  36   0.0000       0.049763         1.3541 
  37   0.0000       0.070159         1.9091 
  38   0.0000       0.086839         2.3630 
  39   0.0000       0.110034         2.9942 
  40   0.0000       0.120578         3.2811 
  41   0.0000       0.126991         3.4556 
  42   0.0000       0.137640         3.7454 
  43   0.0000       0.172558         4.6955 
*Only the first 10 virtual orbitals were printed.

                    ********************************
                    * MULLIKEN POPULATION ANALYSIS *
                    ********************************

--------------------------------------------
MULLIKEN ATOMIC CHARGES AND SPIN POPULATIONS
--------------------------------------------
   0 C :   -0.147205    0.000000
   1 C :   -0.181522   -0.000000
   2 C :    0.108615    0.000000
   3 C :    0.197904   -0.000000
   4 C :   -0.192304    0.000000
   5 C :   -0.126196   -0.000000
   6 H :    0.150746   -0.000000
   7 H :    0.153821   -0.000000
   8 H :    0.146910    0.000000
   9 H :    0.151341   -0.000000
  10 O :   -0.497890    0.000000
  11 H :    0.363089   -0.000000
  12 Cl:   -0.127309    0.000000
Sum of atomic charges         :   -0.0000000
Sum of atomic spin populations:    0.0000000

-----------------------------------------------------
MULLIKEN REDUCED ORBITAL CHARGES AND SPIN POPULATIONS
-----------------------------------------------------
CHARGE
  0 C s       :     3.226535  s :     3.226535
      pz      :     0.889827  p :     2.831808
      px      :     0.966468
      py      :     0.975513
      dz2     :     0.026399  d :     0.081624
      dxz     :     0.021557
      dyz     :     0.018723
      dx2y2   :     0.009461
      dxy     :     0.005484
      f0      :     0.001685  f :     0.007237
      f+1     :     0.001203
      f-1     :     0.001207
      f+2     :     0.000873
      f-2     :     0.001125
      f+3     :     0.000457
      f-3     :     0.000687

  1 C s       :     3.256683  s :     3.256683
      pz      :     0.961462  p :     2.833883
      px      :     0.968159
      py      :     0.904263
      dz2     :     0.018982  d :     0.083490
      dxz     :     0.009210
      dyz     :     0.023977
      dx2y2   :     0.011882
      dxy     :     0.019439
      f0      :     0.001381  f :     0.007466
      f+1     :     0.000870
      f-1     :     0.001257
      f+2     :     0.001292
      f-2     :     0.000435
      f+3     :     0.001613
      f-3     :     0.000618

  2 C s       :     3.146531  s :     3.146531
      pz      :     0.775499  p :     2.590006
      px      :     1.024244
      py      :     0.790263
      dz2     :     0.032684  d :     0.144530
      dxz     :     0.025321
      dyz     :     0.048605
      dx2y2   :     0.013138
      dxy     :     0.024782
      f0      :     0.002240  f :     0.010318
      f+1     :     0.001317
      f-1     :     0.001651
      f+2     :     0.001878
      f-2     :     0.000959
      f+3     :     0.001628
      f-3     :     0.000644

  3 C s       :     3.038946  s :     3.038946
      pz      :     0.916802  p :     2.595310
      px      :     0.976830
      py      :     0.701678
      dz2     :     0.030284  d :     0.153556
      dxz     :     0.024582
      dyz     :     0.050182
      dx2y2   :     0.015156
      dxy     :     0.033353
      f0      :     0.003418  f :     0.014283
      f+1     :     0.001588
      f-1     :     0.001843
      f+2     :     0.002688
      f-2     :     0.001190
      f+3     :     0.002017
      f-3     :     0.001538

  4 C s       :     3.279481  s :     3.279481
      pz      :     0.935146  p :     2.830934
      px      :     0.977753
      py      :     0.918035
      dz2     :     0.012989  d :     0.074536
      dxz     :     0.010047
      dyz     :     0.028552
      dx2y2   :     0.005935
      dxy     :     0.017013
      f0      :     0.001314  f :     0.007353
      f+1     :     0.000891
      f-1     :     0.001279
      f+2     :     0.001313
      f-2     :     0.000447
      f+3     :     0.001520
      f-3     :     0.000589

  5 C s       :     3.216211  s :     3.216211
      pz      :     0.961071  p :     2.822550
      px      :     0.956926
      py      :     0.904554
      dz2     :     0.015938  d :     0.080168
      dxz     :     0.009262
      dyz     :     0.027634
      dx2y2   :     0.009439
      dxy     :     0.017896
      f0      :     0.001444  f :     0.007267
      f+1     :     0.000834
      f-1     :     0.001212
      f+2     :     0.001285
      f-2     :     0.000414
      f+3     :     0.001526
      f-3     :     0.000553

  6 H s       :     0.827445  s :     0.827445
      pz      :     0.003251  p :     0.021809
      px      :     0.004505
      py      :     0.014053

  7 H s       :     0.824287  s :     0.824287
      pz      :     0.011445  p :     0.021891
      px      :     0.004427
      py      :     0.006019

  8 H s       :     0.831254  s :     0.831254
      pz      :     0.011442  p :     0.021836
      px      :     0.004489
      py      :     0.005905

  9 H s       :     0.826908  s :     0.826908
      pz      :     0.011340  p :     0.021751
      px      :     0.004430
      py      :     0.005981

 10 O s       :     3.782637  s :     3.782637
      pz      :     1.906471  p :     4.686029
      px      :     1.466583
      py      :     1.312974
      dz2     :     0.004437  d :     0.027643
      dxz     :     0.001304
      dyz     :     0.003576
      dx2y2   :     0.011696
      dxy     :     0.006631
      f0      :     0.000182  f :     0.001581
      f+1     :     0.000329
      f-1     :     0.000360
      f+2     :     0.000105
      f-2     :     0.000020
      f+3     :     0.000177
      f-3     :     0.000408

 11 H s       :     0.589699  s :     0.589699
      pz      :     0.016205  p :     0.047212
      px      :     0.019428
      py      :     0.011579

 12 Cls       :     5.885106  s :     5.885106
      pz      :     3.439800  p :    11.176335
      px      :     3.926833
      py      :     3.809701
      dz2     :     0.017135  d :     0.060499
      dxz     :     0.013785
      dyz     :     0.020874
      dx2y2   :     0.003528
      dxy     :     0.005178
      f0      :     0.001034  f :     0.005369
      f+1     :     0.000635
      f-1     :     0.002156
      f+2     :     0.000748
      f-2     :     0.000619
      f+3     :     0.000096
      f-3     :     0.000080


SPIN
  0 C s       :     0.000000  s :     0.000000
      pz      :    -0.000000  p :     0.000000
      px      :     0.000000
      py      :     0.000000
      dz2     :     0.000000  d :     0.000000
      dxz     :     0.000000
      dyz     :     0.000000
      dx2y2   :    -0.000000
      dxy     :     0.000000
      f0      :    -0.000000  f :    -0.000000
      f+1     :    -0.000000
      f-1     :    -0.000000
      f+2     :     0.000000
      f-2     :    -0.000000
      f+3     :    -0.000000
      f-3     :     0.000000

  1 C s       :    -0.000000  s :    -0.000000
      pz      :    -0.000000  p :    -0.000000
      px      :    -0.000000
      py      :    -0.000000
      dz2     :     0.000000  d :     0.000000
      dxz     :    -0.000000
      dyz     :    -0.000000
      dx2y2   :     0.000000
      dxy     :     0.000000
      f0      :     0.000000  f :     0.000000
      f+1     :     0.000000
      f-1     :     0.000000
      f+2     :    -0.000000
      f-2     :     0.000000
      f+3     :     0.000000
      f-3     :     0.000000

  2 C s       :     0.000000  s :     0.000000
      pz      :     0.000000  p :     0.000000
      px      :     0.000000
      py      :     0.000000
      dz2     :     0.000000  d :    -0.000000
      dxz     :     0.000000
      dyz     :    -0.000000
      dx2y2   :    -0.000000
      dxy     :     0.000000
      f0      :    -0.000000  f :    -0.000000
      f+1     :     0.000000
      f-1     :    -0.000000
      f+2     :    -0.000000
      f-2     :     0.000000
      f+3     :    -0.000000
      f-3     :    -0.000000

  3 C s       :    -0.000000  s :    -0.000000
      pz      :     0.000000  p :     0.000000
      px      :     0.000000
      py      :    -0.000000
      dz2     :     0.000000  d :     0.000000
      dxz     :     0.000000
      dyz     :     0.000000
      dx2y2   :    -0.000000
      dxy     :    -0.000000
      f0      :     0.000000  f :     0.000000
      f+1     :    -0.000000
      f-1     :     0.000000
      f+2     :     0.000000
      f-2     :     0.000000
      f+3     :    -0.000000
      f-3     :     0.000000

  4 C s       :     0.000000  s :     0.000000
      pz      :     0.000000  p :    -0.000000
      px      :    -0.000000
      py      :    -0.000000
      dz2     :    -0.000000  d :    -0.000000
      dxz     :    -0.000000
      dyz     :    -0.000000
      dx2y2   :    -0.000000
      dxy     :    -0.000000
      f0      :    -0.000000  f :    -0.000000
      f+1     :     0.000000
      f-1     :    -0.000000
      f+2     :    -0.000000
      f-2     :     0.000000
      f+3     :     0.000000
      f-3     :    -0.000000

  5 C s       :    -0.000000  s :    -0.000000
      pz      :     0.000000  p :    -0.000000
      px      :    -0.000000
      py      :    -0.000000
      dz2     :     0.000000  d :     0.000000
      dxz     :     0.000000
      dyz     :    -0.000000
      dx2y2   :     0.000000
      dxy     :    -0.000000
      f0      :     0.000000  f :    -0.000000
      f+1     :     0.000000
      f-1     :    -0.000000
      f+2     :     0.000000
      f-2     :    -0.000000
      f+3     :     0.000000
      f-3     :    -0.000000

  6 H s       :    -0.000000  s :    -0.000000
      pz      :     0.000000  p :     0.000000
      px      :     0.000000
      py      :     0.000000

  7 H s       :    -0.000000  s :    -0.000000
      pz      :    -0.000000  p :    -0.000000
      px      :    -0.000000
      py      :    -0.000000

  8 H s       :     0.000000  s :     0.000000
      pz      :    -0.000000  p :    -0.000000
      px      :    -0.000000
      py      :    -0.000000

  9 H s       :    -0.000000  s :    -0.000000
      pz      :    -0.000000  p :    -0.000000
      px      :    -0.000000
      py      :     0.000000

 10 O s       :    -0.000000  s :    -0.000000
      pz      :    -0.000000  p :     0.000000
      px      :     0.000000
      py      :     0.000000
      dz2     :     0.000000  d :     0.000000
      dxz     :     0.000000
      dyz     :     0.000000
      dx2y2   :    -0.000000
      dxy     :    -0.000000
      f0      :    -0.000000  f :    -0.000000
      f+1     :    -0.000000
      f-1     :    -0.000000
      f+2     :    -0.000000
      f-2     :    -0.000000
      f+3     :    -0.000000
      f-3     :     0.000000

 11 H s       :    -0.000000  s :    -0.000000
      pz      :     0.000000  p :    -0.000000
      px      :    -0.000000
      py      :    -0.000000

 12 Cls       :     0.000000  s :     0.000000
      pz      :     0.000000  p :    -0.000000
      px      :    -0.000000
      py      :    -0.000000
      dz2     :     0.000000  d :     0.000000
      dxz     :     0.000000
      dyz     :    -0.000000
      dx2y2   :     0.000000
      dxy     :     0.000000
      f0      :     0.000000  f :     0.000000
      f+1     :    -0.000000
      f-1     :    -0.000000
      f+2     :    -0.000000
      f-2     :     0.000000
      f+3     :     0.000000
      f-3     :    -0.000000



                     *******************************
                     * LOEWDIN POPULATION ANALYSIS *
                     *******************************

-------------------------------------------
LOEWDIN ATOMIC CHARGES AND SPIN POPULATIONS
-------------------------------------------
   0 C :   -0.141712    0.000000
   1 C :   -0.142439   -0.000000
   2 C :   -0.397436   -0.000000
   3 C :   -0.240610    0.000000
   4 C :   -0.117476   -0.000000
   5 C :   -0.138018   -0.000000
   6 H :    0.156973    0.000000
   7 H :    0.159015    0.000000
   8 H :    0.160747    0.000000
   9 H :    0.156491   -0.000000
  10 O :   -0.012543    0.000000
  11 H :    0.197723   -0.000000
  12 Cl:    0.359283    0.000000

----------------------------------------------------
LOEWDIN REDUCED ORBITAL CHARGES AND SPIN POPULATIONS
----------------------------------------------------
CHARGE
  0 C s       :     2.772161  s :     2.772161
      pz      :     1.064770  p :     2.945877
      px      :     0.888097
      py      :     0.993010
      dz2     :     0.138974  d :     0.381000
      dxz     :     0.076615
      dyz     :     0.102842
      dx2y2   :     0.050242
      dxy     :     0.012327
      f0      :     0.012027  f :     0.042675
      f+1     :     0.003668
      f-1     :     0.008654
      f+2     :     0.007662
      f-2     :     0.007512
      f+3     :     0.000554
      f-3     :     0.002597

  1 C s       :     2.774077  s :     2.774077
      pz      :     1.023770  p :     2.945968
      px      :     0.888942
      py      :     1.033256
      dz2     :     0.094151  d :     0.379695
      dxz     :     0.027743
      dyz     :     0.135691
      dx2y2   :     0.055694
      dxy     :     0.066416
      f0      :     0.009565  f :     0.042699
      f+1     :     0.004122
      f-1     :     0.007498
      f+2     :     0.007730
      f-2     :     0.002830
      f+3     :     0.005744
      f-3     :     0.005211

  2 C s       :     2.785297  s :     2.785297
      pz      :     0.965246  p :     2.967328
      px      :     0.943354
      py      :     1.058728
      dz2     :     0.151537  d :     0.584512
      dxz     :     0.084238
      dyz     :     0.202287
      dx2y2   :     0.065685
      dxy     :     0.080765
      f0      :     0.015017  f :     0.060299
      f+1     :     0.006456
      f-1     :     0.010897
      f+2     :     0.011366
      f-2     :     0.006642
      f+3     :     0.005016
      f-3     :     0.004905

  3 C s       :     2.731492  s :     2.731492
      pz      :     1.082196  p :     2.791697
      px      :     0.891425
      py      :     0.818076
      dz2     :     0.147239  d :     0.632840
      dxz     :     0.080703
      dyz     :     0.209070
      dx2y2   :     0.104582
      dxy     :     0.091246
      f0      :     0.020978  f :     0.084581
      f+1     :     0.006092
      f-1     :     0.012868
      f+2     :     0.015913
      f-2     :     0.007917
      f+3     :     0.009950
      f-3     :     0.010862

  4 C s       :     2.772117  s :     2.772117
      pz      :     0.995732  p :     2.935624
      px      :     0.893004
      py      :     1.046888
      dz2     :     0.081748  d :     0.367599
      dxz     :     0.029962
      dyz     :     0.145235
      dx2y2   :     0.051297
      dxy     :     0.059356
      f0      :     0.009271  f :     0.042136
      f+1     :     0.004253
      f-1     :     0.007744
      f+2     :     0.008034
      f-2     :     0.003091
      f+3     :     0.004967
      f-3     :     0.004776

  5 C s       :     2.772417  s :     2.772417
      pz      :     1.014522  p :     2.940484
      px      :     0.879526
      py      :     1.046436
      dz2     :     0.091083  d :     0.382379
      dxz     :     0.028186
      dyz     :     0.147580
      dx2y2   :     0.053344
      dxy     :     0.062186
      f0      :     0.010375  f :     0.042738
      f+1     :     0.003970
      f-1     :     0.007375
      f+2     :     0.008278
      f-2     :     0.002818
      f+3     :     0.005074
      f-3     :     0.004847

  6 H s       :     0.785939  s :     0.785939
      pz      :     0.009712  p :     0.057089
      px      :     0.012444
      py      :     0.034933

  7 H s       :     0.783289  s :     0.783289
      pz      :     0.029130  p :     0.057695
      px      :     0.012491
      py      :     0.016075

  8 H s       :     0.781710  s :     0.781710
      pz      :     0.028986  p :     0.057543
      px      :     0.012568
      py      :     0.015988

  9 H s       :     0.786521  s :     0.786521
      pz      :     0.028692  p :     0.056988
      px      :     0.012259
      py      :     0.016037

 10 O s       :     3.359791  s :     3.359791
      pz      :     1.786126  p :     4.589239
      px      :     1.460040
      py      :     1.343073
      dz2     :     0.007793  d :     0.059553
      dxz     :     0.000437
      dyz     :     0.010140
      dx2y2   :     0.022929
      dxy     :     0.018254
      f0      :     0.000306  f :     0.003959
      f+1     :     0.000457
      f-1     :     0.000653
      f+2     :     0.000453
      f-2     :     0.000006
      f+3     :     0.000993
      f-3     :     0.001092

 11 H s       :     0.643193  s :     0.643193
      pz      :     0.045724  p :     0.159083
      px      :     0.081782
      py      :     0.031577

 12 Cls       :     5.563896  s :     5.563896
      pz      :     3.397225  p :    10.968450
      px      :     3.854274
      py      :     3.716951
      dz2     :     0.028311  d :     0.097426
      dxz     :     0.021825
      dyz     :     0.033042
      dx2y2   :     0.006155
      dxy     :     0.008095
      f0      :     0.002376  f :     0.010944
      f+1     :     0.001400
      f-1     :     0.003865
      f+2     :     0.001531
      f-2     :     0.001417
      f+3     :     0.000193
      f-3     :     0.000161


SPIN
  0 C s       :     0.000000  s :     0.000000
      pz      :     0.000000  p :     0.000000
      px      :     0.000000
      py      :     0.000000
      dz2     :    -0.000000  d :    -0.000000
      dxz     :    -0.000000
      dyz     :    -0.000000
      dx2y2   :     0.000000
      dxy     :    -0.000000
      f0      :    -0.000000  f :    -0.000000
      f+1     :    -0.000000
      f-1     :    -0.000000
      f+2     :     0.000000
      f-2     :    -0.000000
      f+3     :    -0.000000
      f-3     :    -0.000000

  1 C s       :    -0.000000  s :    -0.000000
      pz      :    -0.000000  p :    -0.000000
      px      :    -0.000000
      py      :     0.000000
      dz2     :     0.000000  d :     0.000000
      dxz     :     0.000000
      dyz     :    -0.000000
      dx2y2   :    -0.000000
      dxy     :     0.000000
      f0      :    -0.000000  f :     0.000000
      f+1     :     0.000000
      f-1     :     0.000000
      f+2     :    -0.000000
      f-2     :     0.000000
      f+3     :     0.000000
      f-3     :     0.000000

  2 C s       :    -0.000000  s :    -0.000000
      pz      :     0.000000  p :     0.000000
      px      :     0.000000
      py      :     0.000000
      dz2     :    -0.000000  d :    -0.000000
      dxz     :     0.000000
      dyz     :     0.000000
      dx2y2   :    -0.000000
      dxy     :    -0.000000
      f0      :     0.000000  f :    -0.000000
      f+1     :    -0.000000
      f-1     :     0.000000
      f+2     :    -0.000000
      f-2     :     0.000000
      f+3     :    -0.000000
      f-3     :    -0.000000

  3 C s       :    -0.000000  s :    -0.000000
      pz      :     0.000000  p :     0.000000
      px      :     0.000000
      py      :     0.000000
      dz2     :     0.000000  d :     0.000000
      dxz     :     0.000000
      dyz     :     0.000000
      dx2y2   :     0.000000
      dxy     :     0.000000
      f0      :    -0.000000  f :     0.000000
      f+1     :    -0.000000
      f-1     :     0.000000
      f+2     :     0.000000
      f-2     :     0.000000
      f+3     :     0.000000
      f-3     :     0.000000

  4 C s       :    -0.000000  s :    -0.000000
      pz      :    -0.000000  p :    -0.000000
      px      :    -0.000000
      py      :    -0.000000
      dz2     :     0.000000  d :    -0.000000
      dxz     :     0.000000
      dyz     :    -0.000000
      dx2y2   :     0.000000
      dxy     :    -0.000000
      f0      :    -0.000000  f :     0.000000
      f+1     :     0.000000
      f-1     :     0.000000
      f+2     :     0.000000
      f-2     :     0.000000
      f+3     :     0.000000
      f-3     :     0.000000

  5 C s       :    -0.000000  s :    -0.000000
      pz      :     0.000000  p :    -0.000000
      px      :    -0.000000
      py      :     0.000000
      dz2     :     0.000000  d :    -0.000000
      dxz     :     0.000000
      dyz     :    -0.000000
      dx2y2   :    -0.000000
      dxy     :     0.000000
      f0      :     0.000000  f :    -0.000000
      f+1     :     0.000000
      f-1     :    -0.000000
      f+2     :    -0.000000
      f-2     :     0.000000
      f+3     :    -0.000000
      f-3     :    -0.000000

  6 H s       :     0.000000  s :     0.000000
      pz      :     0.000000  p :    -0.000000
      px      :     0.000000
      py      :    -0.000000

  7 H s       :     0.000000  s :     0.000000
      pz      :    -0.000000  p :    -0.000000
      px      :    -0.000000
      py      :    -0.000000

  8 H s       :     0.000000  s :     0.000000
      pz      :    -0.000000  p :    -0.000000
      px      :     0.000000
      py      :    -0.000000

  9 H s       :    -0.000000  s :    -0.000000
      pz      :     0.000000  p :     0.000000
      px      :    -0.000000
      py      :     0.000000

 10 O s       :     0.000000  s :     0.000000
      pz      :     0.000000  p :     0.000000
      px      :    -0.000000
      py      :     0.000000
      dz2     :    -0.000000  d :    -0.000000
      dxz     :     0.000000
      dyz     :    -0.000000
      dx2y2   :    -0.000000
      dxy     :    -0.000000
      f0      :     0.000000  f :    -0.000000
      f+1     :    -0.000000
      f-1     :    -0.000000
      f+2     :    -0.000000
      f-2     :    -0.000000
      f+3     :    -0.000000
      f-3     :    -0.000000

 11 H s       :    -0.000000  s :    -0.000000
      pz      :     0.000000  p :     0.000000
      px      :     0.000000
      py      :     0.000000

 12 Cls       :     0.000000  s :     0.000000
      pz      :     0.000000  p :     0.000000
      px      :    -0.000000
      py      :    -0.000000
      dz2     :     0.000000  d :     0.000000
      dxz     :     0.000000
      dyz     :    -0.000000
      dx2y2   :     0.000000
      dxy     :     0.000000
      f0      :     0.000000  f :    -0.000000
      f+1     :     0.000000
      f-1     :    -0.000000
      f+2     :    -0.000000
      f-2     :     0.000000
      f+3     :     0.000000
      f-3     :    -0.000000



                      *****************************
                      * MAYER POPULATION ANALYSIS *
                      *****************************

  NA   - Mulliken gross atomic population
  ZA   - Total nuclear charge
  QA   - Mulliken gross atomic charge
  VA   - Mayer's total valence
  BVA  - Mayer's bonded valence
  FA   - Mayer's free valence

  ATOM       NA         ZA         QA         VA         BVA        FA
  0 C      6.1472     6.0000    -0.1472     3.8837     3.8837     0.0000
  1 C      6.1815     6.0000    -0.1815     3.9109     3.9109    -0.0000
  2 C      5.8914     6.0000     0.1086     3.6673     3.6673    -0.0000
  3 C      5.8021     6.0000     0.1979     3.9265     3.9265    -0.0000
  4 C      6.1923     6.0000    -0.1923     3.8879     3.8879    -0.0000
  5 C      6.1262     6.0000    -0.1262     3.8558     3.8558     0.0000
  6 H      0.8493     1.0000     0.1507     0.9621     0.9621     0.0000
  7 H      0.8462     1.0000     0.1538     0.9737     0.9737    -0.0000
  8 H      0.8531     1.0000     0.1469     0.9793     0.9793    -0.0000
  9 H      0.8487     1.0000     0.1513     0.9614     0.9614     0.0000
 10 O      8.4979     8.0000    -0.4979     1.9624     1.9624    -0.0000
 11 H      0.6369     1.0000     0.3631     0.8753     0.8753     0.0000
 12 Cl    17.1273    17.0000    -0.1273     1.1941     1.1941    -0.0000

  Mayer bond orders larger than 0.100000
B(  0-C ,  1-C ) :   1.3993 B(  0-C ,  5-C ) :   1.3933 B(  0-C ,  6-H ) :   0.9658 
B(  1-C ,  2-C ) :   1.3288 B(  1-C ,  7-H ) :   0.9624 B(  2-C ,  3-C ) :   1.2880 
B(  2-C , 12-Cl) :   0.9770 B(  3-C ,  4-C ) :   1.4015 B(  3-C , 10-O ) :   1.0702 
B(  4-C ,  5-C ) :   1.3837 B(  4-C ,  8-H ) :   0.9697 B(  5-C ,  9-H ) :   0.9661 
B( 10-O , 11-H ) :   0.8593 

-------
TIMINGS
-------

Total SCF time: 0 days 0 hours 0 min 11 sec 

Total time                  ....      11.111 sec
Sum of individual times     ....      10.286 sec  ( 92.6%)

SCF preparation             ....       0.221 sec  (  2.0%)
Fock matrix formation       ....       7.876 sec  ( 70.9%)
  Startup                   ....       0.153 sec  (  1.9% of F)
  Split-RI-J                ....       0.591 sec  (  7.5% of F)
  Chain of spheres X        ....       4.169 sec  ( 52.9% of F)
  XC integration            ....       1.653 sec  ( 21.0% of F)
    Basis function eval.    ....       0.211 sec  ( 12.8% of XC)
    Density eval.           ....       0.338 sec  ( 20.4% of XC)
    XC-Functional eval.     ....       0.010 sec  (  0.6% of XC)
    XC-Potential eval.      ....       0.494 sec  ( 29.9% of XC)
  CPCM terms                ....       0.787 sec  ( 10.0% of F)
Diagonalization             ....       0.000 sec  (  0.0%)
Density matrix formation    ....       0.517 sec  (  4.7%)
Total Energy calculation    ....       0.309 sec  (  2.8%)
Population analysis         ....       0.111 sec  (  1.0%)
Orbital Transformation      ....       0.165 sec  (  1.5%)
Orbital Orthonormalization  ....       0.000 sec  (  0.0%)
DIIS solution               ....       0.471 sec  (  4.2%)
SOSCF solution              ....       0.616 sec  (  5.5%)
Finished LeanSCF after  11.2 sec

[...]
     18       0.013677   0.011105   0.012264   0.003523  -0.020397   0.030999
     19      -0.016722   0.131305   0.088989   0.149888  -0.417674   0.635910
     20       0.660228   0.212548   0.358821  -0.177458   0.016084  -0.026884
     21       0.008045   0.031482  -0.001184   0.020958   0.000493  -0.001287
     22       0.082616   0.518478  -0.082274   0.342917   0.070959  -0.182256
     23       0.180184   0.263465   0.131596   0.185424  -0.137044   0.351156
     24      -0.000862   0.030475   0.005585  -0.023723   0.002025   0.002717
     25      -0.059245   0.496612   0.168500  -0.366916   0.239209   0.312275
     26       0.092234   0.265038  -0.125105  -0.249719  -0.444139  -0.576545
     27      -0.011894   0.014635   0.017581   0.002442   0.033144  -0.000336
     28      -0.387907   0.341192   0.403095   0.169228   0.384539  -0.005593
     29       0.343739  -0.115492  -0.121134  -0.269725   0.624850  -0.002519
     30       0.001841  -0.002003  -0.000439   0.001357   0.000004   0.000016
     31       0.016906  -0.049908   0.016408   0.017843  -0.000016   0.000270
     32       0.038411   0.019534  -0.049647   0.017880   0.000179   0.000144
     33       0.011656   0.002003  -0.013755   0.005879  -0.000040   0.000062
     34       0.332165   0.069573  -0.393170   0.169567   0.000016   0.001395
     35      -0.123046  -0.035863   0.157153  -0.075546  -0.001603  -0.000122
     36      -0.000135  -0.000133  -0.000159   0.000107   0.000001   0.000002
     37      -0.003200  -0.000595  -0.002854   0.000355   0.000007   0.000022
     38       0.000478  -0.005128   0.000050   0.003532  -0.000008   0.000044
                 36         37         38    
      0       0.000748   0.002718   0.000014
      1       0.016892   0.055312   0.000218
      2      -0.004119  -0.001306  -0.000057
      3      -0.000206   0.000106  -0.000005
      4      -0.023647   0.027087  -0.000182
      5       0.043784  -0.056074  -0.000168
      6       0.000103  -0.000158   0.000055
      7       0.002018  -0.002896   0.001029
      8       0.000144  -0.000667   0.000055
      9      -0.000117  -0.000048  -0.000152
     10      -0.001509  -0.000880  -0.001962
     11      -0.001913  -0.000170  -0.001977
     12      -0.000291  -0.000132   0.000053
     13      -0.023973  -0.008623   0.000952
     14       0.040505   0.013304   0.000667
     15       0.002429   0.001284  -0.000016
     16       0.028929   0.014155  -0.000229
     17       0.044173   0.025928  -0.000069
     18      -0.009290  -0.029783  -0.000011
     19      -0.192216  -0.610482  -0.000323
     20       0.011715   0.024735  -0.000077
     21       0.001793  -0.001983   0.000057
     22       0.262791  -0.316294   0.000912
     23      -0.509429   0.620958  -0.000064
     24       0.002312   0.000811  -0.000013
     25       0.252800   0.083563   0.000104
     26      -0.461907  -0.150640  -0.000137
     27      -0.026715  -0.014386   0.000050
     28      -0.310686  -0.165970   0.000653
     29      -0.501935  -0.273254   0.001111
     30       0.000013   0.000009  -0.002690
     31       0.000179   0.000162  -0.027141
     32       0.000196   0.000020  -0.055593
     33       0.000064   0.000029   0.043467
     34       0.001363   0.000440   0.434673
     35      -0.000062   0.000308   0.897397
     36      -0.000004   0.000007  -0.000008
     37      -0.000043   0.000097  -0.000090
     38      -0.000058   0.000108   0.000074


-----------
IR SPECTRUM
-----------

 Mode   freq       eps      Int      T**2         TX        TY        TZ
       cm**-1   L/(mol*cm) km/mol    a.u.
----------------------------------------------------------------------------
  6:    157.02   0.000054    0.27  0.000108  (-0.010330 -0.000531  0.000820)
  7:    249.26   0.001039    5.25  0.001301  ( 0.009628  0.030289 -0.017056)
  8:    265.10   0.000285    1.44  0.000336  (-0.018279  0.001285  0.000325)
  9:    374.66   0.005403   27.31  0.004500  (-0.062779 -0.006463  0.022746)
 10:    381.31   0.028924  146.17  0.023672  ( 0.153502 -0.009154  0.005046)
 11:    453.06   0.000721    3.64  0.000496  (-0.022207  0.001736  0.000470)
 12:    496.29   0.003793   19.17  0.002385  ( 0.001521 -0.048088 -0.008369)
 13:    554.88   0.000401    2.03  0.000226  (-0.014992  0.000852  0.000391)
 14:    564.49   0.001835    9.27  0.001014  (-0.001922 -0.027566 -0.015838)
 15:    682.53   0.009229   46.64  0.004220  ( 0.003230  0.043821  0.047843)
 16:    725.98   0.000093    0.47  0.000040  ( 0.006326 -0.000356 -0.000142)
 17:    761.12   0.024390  123.26  0.010000  (-0.099847  0.005043  0.002253)
 18:    841.99   0.005808   29.35  0.002153  (-0.001783 -0.041556  0.020559)
 19:    867.82   0.000324    1.64  0.000117  (-0.010779  0.000578  0.000290)
 20:    953.52   0.000973    4.92  0.000318  ( 0.017822 -0.000872 -0.000263)
 21:    979.82   0.000002    0.01  0.000001  (-0.000849 -0.000056  0.000099)
 22:   1042.64   0.016693   84.36  0.004996  (-0.003572 -0.055949 -0.043048)
 23:   1061.79   0.004137   20.91  0.001216  ( 0.000764  0.000943  0.034848)
 24:   1135.65   0.001048    5.30  0.000288  (-0.000930 -0.010677 -0.013161)
 25:   1171.39   0.001221    6.17  0.000325  (-0.000160 -0.010618  0.014577)
 26:   1201.91   0.051571  260.62  0.013390  (-0.003641 -0.104124  0.050348)
 27:   1264.43   0.022843  115.44  0.005638  ( 0.003452  0.074629 -0.007501)
 28:   1318.59   0.011774   59.50  0.002787  (-0.002861 -0.047388 -0.023081)
 29:   1365.30   0.005273   26.65  0.001205  ( 0.001038  0.031523 -0.014507)
 30:   1488.68   0.001504    7.60  0.000315  (-0.000350 -0.011913  0.013161)
 31:   1504.72   0.046534  235.17  0.009651  ( 0.005067  0.097125  0.013851)
 32:   1619.04   0.007205   36.41  0.001389  (-0.001603 -0.036467  0.007511)
 33:   1625.23   0.007916   40.00  0.001520  (-0.001639 -0.037465  0.010662)
 34:   3176.64   0.000452    2.28  0.000044  (-0.000325 -0.004361 -0.005024)
 35:   3186.78   0.001412    7.13  0.000138  (-0.000507 -0.011527  0.002266)
 36:   3193.39   0.001400    7.08  0.000137  ( 0.000340  0.002051  0.011511)
 37:   3202.33   0.000993    5.02  0.000097  ( 0.000502  0.009565  0.002247)
 38:   3705.02   0.038459  194.35  0.003239  ( 0.002835  0.035868  0.044099)

* The epsilon (eps) is given for a Dirac delta lineshape.
** The dipole moment derivative (T) already includes vibrational overlap.

The first frequency considered to be a vibration is 6
The total number of vibrations considered is 33


--------------------------
THERMOCHEMISTRY AT 298.15K
--------------------------

Temperature         ...   298.15 K
Pressure            ...     1.00 atm
Total Mass          ...   128.56 AMU
Quasi RRHO          ...     True
Cut-Off Frequency   ...     1.00 cm^-1

Throughout the following assumptions are being made:
  (1) The electronic state is orbitally nondegenerate
  (2) There are no thermally accessible electronically excited states
  (3) Hindered rotations indicated by low frequency modes are not
      treated as such but are treated as vibrations and this may
      cause some error
  (4) All equations used are the standard statistical mechanics
      equations for an ideal gas
  (5) All vibrations are strictly harmonic

freq.     157.02  E(vib)   ...       0.40 
freq.     249.26  E(vib)   ...       0.31 
freq.     265.10  E(vib)   ...       0.29 
freq.     374.66  E(vib)   ...       0.21 
freq.     381.31  E(vib)   ...       0.21 
freq.     453.06  E(vib)   ...       0.16 
freq.     496.29  E(vib)   ...       0.14 
freq.     554.88  E(vib)   ...       0.12 
freq.     564.49  E(vib)   ...       0.11 
freq.     682.53  E(vib)   ...       0.08 
freq.     725.98  E(vib)   ...       0.06 
freq.     761.12  E(vib)   ...       0.06 
freq.     841.99  E(vib)   ...       0.04 
freq.     867.82  E(vib)   ...       0.04 
freq.     953.52  E(vib)   ...       0.03 
freq.     979.82  E(vib)   ...       0.02 
freq.    1042.64  E(vib)   ...       0.02 
freq.    1061.79  E(vib)   ...       0.02 
freq.    1135.65  E(vib)   ...       0.01 
freq.    1171.39  E(vib)   ...       0.01 
freq.    1201.91  E(vib)   ...       0.01 
freq.    1264.43  E(vib)   ...       0.01 
freq.    1318.59  E(vib)   ...       0.01 
freq.    1365.30  E(vib)   ...       0.01 
freq.    1488.68  E(vib)   ...       0.00 
freq.    1504.72  E(vib)   ...       0.00 
freq.    1619.04  E(vib)   ...       0.00 
freq.    1625.23  E(vib)   ...       0.00 
freq.    3176.64  E(vib)   ...       0.00 
freq.    3186.78  E(vib)   ...       0.00 
freq.    3193.39  E(vib)   ...       0.00 
freq.    3202.33  E(vib)   ...       0.00 
freq.    3705.02  E(vib)   ...       0.00 

------------
INNER ENERGY
------------

The inner energy is: U= E(el) + E(ZPE) + E(vib) + E(rot) + E(trans)
    E(el)   - is the total energy from the electronic structure calculation
              = E(kin-el) + E(nuc-el) + E(el-el) + E(nuc-nuc)
    E(ZPE)  - the the zero temperature vibrational energy from the frequency calculation
    E(vib)  - the the finite temperature correction to E(ZPE) due to population
              of excited vibrational states
    E(rot)  - is the rotational thermal energy
    E(trans)- is the translational thermal energy

Summary of contributions to the inner energy U:
Electronic energy                ...   -766.98091466 Eh
Zero point energy                ...      0.09470884 Eh      59.43 kcal/mol
Thermal vibrational correction   ...      0.00379254 Eh       2.38 kcal/mol
Thermal rotational correction    ...      0.00141627 Eh       0.89 kcal/mol
Thermal translational correction ...      0.00141627 Eh       0.89 kcal/mol
-----------------------------------------------------------------------
Total thermal energy                   -766.87958073 Eh


Summary of corrections to the electronic energy:
(perhaps to be used in another calculation)
Total thermal correction                  0.00662508 Eh       4.16 kcal/mol
Non-thermal (ZPE) correction              0.09470884 Eh      59.43 kcal/mol
-----------------------------------------------------------------------
Total correction                          0.10133392 Eh      63.59 kcal/mol


--------
ENTHALPY
--------

The enthalpy is H = U + kB*T
                kB is Boltzmann's constant
Total thermal energy              ...   -766.87958073 Eh 
Thermal Enthalpy correction       ...      0.00094421 Eh       0.59 kcal/mol
-----------------------------------------------------------------------
Total Enthalpy                    ...   -766.87863653 Eh


Note: Only C1 symmetry has been detected, increase convergence thresholds 
      if your molecule has a higher symmetry. Symmetry factor of 1.0 is   
      used for the rotational entropy correction. 
 

Note: Rotational entropy computed according to Herzberg 
Infrared and Raman Spectra, Chapter V,1, Van Nostrand Reinhold, 1945 
Point Group:  C1, Symmetry Number:   1  
Rotational constants in cm-1:     0.099288     0.051110     0.033741 

Vibrational entropy computed according to the QRRHO of S. Grimme
Chem.Eur.J. 2012 18 9955 using a reference frequency of 100.0 cm-1


-------
ENTROPY
-------

The entropy contributions are T*S = T*(S(el)+S(vib)+S(rot)+S(trans))
     S(el)   - electronic entropy
     S(vib)  - vibrational entropy
     S(rot)  - rotational entropy
     S(trans)- translational entropy
The entropies will be listed as multiplied by the temperature to get
units of energy

Electronic entropy                ...      0.00000000 Eh      0.00 kcal/mol
Vibrational entropy               ...      0.00586543 Eh      3.68 kcal/mol
Rotational entropy                ...      0.01360503 Eh      8.54 kcal/mol
Translational entropy             ...      0.01922702 Eh     12.07 kcal/mol
-----------------------------------------------------------------------
Final entropy term                ...      0.03869748 Eh     24.28 kcal/mol

In case the symmetry of your molecule has not been determined correctly
or in case you have a reason to use a different symmetry number we print 
out the resulting rotational entropy values for sn=1,12:

 non-linear molecules -----------------------------------
|  sn= 1 | S(rot)=       0.01360503 Eh      8.54 kcal/mol|
|  sn= 2 | S(rot)=       0.01295058 Eh      8.13 kcal/mol|
|  sn= 3 | S(rot)=       0.01256774 Eh      7.89 kcal/mol|
|  sn= 4 | S(rot)=       0.01229612 Eh      7.72 kcal/mol|
|  sn= 5 | S(rot)=       0.01208543 Eh      7.58 kcal/mol|
|  sn= 6 | S(rot)=       0.01191329 Eh      7.48 kcal/mol|
|  sn= 7 | S(rot)=       0.01176774 Eh      7.38 kcal/mol|
|  sn= 8 | S(rot)=       0.01164166 Eh      7.31 kcal/mol|
|  sn= 9 | S(rot)=       0.01153046 Eh      7.24 kcal/mol|
|  sn=10 | S(rot)=       0.01143098 Eh      7.17 kcal/mol|
|  sn=11 | S(rot)=       0.01134099 Eh      7.12 kcal/mol|
|  sn=12 | S(rot)=       0.01125883 Eh      7.07 kcal/mol|
 linear molecules ---------------------------------------
|  Dinfh | S(rot)=       0.00852567 Eh      5.35 kcal/mol|
|  Cinfv | S(rot)=       0.00918012 Eh      5.76 kcal/mol|
 --------------------------------------------------------


-------------------
GIBBS FREE ENERGY
-------------------

The Gibbs free energy is G = H - T*S

Total enthalpy                    ...   -766.87863653 Eh 
Total entropy correction          ...     -0.03869748 Eh    -24.28 kcal/mol
-----------------------------------------------------------------------
Final Gibbs free energy         ...   -766.91733401 Eh

For completeness - the Gibbs free energy minus the electronic energy
G-E(el)                           ...      0.06358065 Eh     39.90 kcal/mol


Maximum memory used throughout the entire PROP-calculation: 115.0 MB

--------------------------------
SUGGESTED CITATIONS FOR THIS RUN
--------------------------------

Below you find a list of papers that are relevant to this ORCA run
We neither can nor want to force you to cite these papers, but we appreciate if you do
You receive ORCA, which is the product of decades of hard work by many enthusiastic individuals, for free
The only thing we kindly ask in return is that you cite our papers,
We deeply appreciate it, if you show your appreciation for ORCA by not just citing the generic ORCA reference.

Please note that relegating all ORCA citations to the supporting information does *not* help us.
SI sections are not indexed - citations you put there will not count into any citation statistics
But we need these citations in order to attract the funding resources that allow us to do what we are doing

Therefore, if you are a happy ORCA user, please consider citing a few of the papers listed below in the main body of your paper

In addition to the list printed below, the program has created the file C:\orca_jobs\ex1\B3LYP(water).bibtex that contains the list in bibtex format
You can import this file easily into all common literature databanks and citation aid programs


List of essential papers. We consider these as the minimum necessary citations

  1. Neese, F.
     Software update: the ORCA program system, version 6.0
     WIRES Comput. Molec. Sci. 2025 15(1), e70019
     doi.org/10.1002/wcms.7019

List of papers to cite with high priority. The work reported in these papers was absolutely
necessary for this run to complete.
Our perspective: the developers of density functionals and basis sets usually get cited in chemistry papers
Good! But without the algorithms to do something with them, the functionals or basis sets would not do anything.
Hence, in our opinion, the algorithm design and method developments papers are equally worthy of getting cited

  1. Neese, F.
     An improvement of the resolution of the identity approximation for the formation of the Coulomb matrix
     J. Comp. Chem. 2003 24(14), 1740-1747
     doi.org/10.1002/jcc.10318
  2. Neese, F.; Wennmohs, F.; Hansen, A.; Becker, U.
     Efficient, approximate and parallel Hartree-Fock and hybrid DFT calculations. A 'chain-of-spheres' algorithm for the Hartree-Fock exchange
     Chem. Phys. 2009 356(1-3), 98-109
     doi.org/10.1016/j.chemphys.2008.10.036
  3. Bykov, D.; Petrenko, T.; Izsak, R.; Kossmann, S.; Becker, U.; Valeev, E.; Neese, F.
     Efficient implementation of the analytic second derivatives of Hartree-Fock and hybrid DFT energies: a detailed analysis of different approximations
     Molec. Phys. 2015 113 , 1961-1977
     doi.org/10.1080/00268976.2015.1025114
  4. Garcia-Rates, M.; Neese, F.
     Efficient implementation of the analytical second derivatives of hartree-fock and hybrid DFT energies within the framework of the conductor-like polarizable continuum model
     J. Comput. Chem. 2019 40 , 1816-1828
     doi.org/10.1002/jcc.25833
  5. Garcia-Rates, M.; Neese, F.
     Effect of the Solute Cavity on the Solvation Energy and its Derivatives within the Framework of the Gaussian Charge Scheme
     J. Comput. Chem. 2020 41 , 922-939
     doi.org/10.1002/jcc.26139
  6. Helmich-Paris, B.; de Souza, B.; Neese, F.; Izsák, R.
     An improved chain of spheres for exchange algorithm
     J. Chem. Phys. 2021 155(10), 104109
     doi.org/10.1063/5.0058766
  7. Neese, F.
     The SHARK Integral Generation and Digestion System
     J. Comp. Chem. 2022 44(3), 381
     doi.org/10.1002/jcc.26942

List of suggested additional citations. These are papers that are important in the 'surrounding' of 
of this run, or papers that preceded the highly important papers. If you like your results we are grateful for a citation.

  1. Izsak, R.; Neese, F.
     An overlap fitted chain of spheres exchange method
     J. Chem. Phys. 2011 135 , 144105
     doi.org/10.1063/1.3646921
  2. Izsak, R.; Hansen, A.; Neese, F.
     The resolution of identity and chain of spheres approximations for the LPNO-CCSD singles Fock term
     Molec. Phys. 2012 110 , 2413-2417
     doi.org/10.1080/00268976.2012.687466
  3. Neese, F.
     The ORCA program system
     WIRES Comput. Molec. Sci. 2012 2(1), 73-78
     doi.org/10.1002/wcms.81
  4. Izsak, R.; Neese, F.; Klopper, W.
     Robust fitting techniques in the chain of spheres approximation to the Fock exchange: The role of the complementary space
     J. Chem. Phys. 2013 139 , 
     doi.org/10.1063/1.4819264
  5. Neese, F.
     Software update: the ORCA program system, version 4.0
     WIRES Comput. Molec. Sci. 2018 8(1), 1-6
     doi.org/10.1002/wcms.1327
  6. Neese, F.; Wennmohs, F.; Becker, U.; Riplinger, C.
     The ORCA quantum chemistry program package
     J. Chem. Phys. 2020 152(22), 224108
     doi.org/10.1063/5.0004608
  7. Neese, F.
     Software update: The ORCA program system—Version 5.0
     WIRES Comput. Molec. Sci. 2022 12(1), e1606
     doi.org/10.1002/wcms.1606

List of optional additional citations

  1. Neese, F.
     Approximate second-order SCF convergence for spin unrestricted wavefunctions
     Chem. Phys. Lett. 2000 325(1-3), 93-98
     doi.org/10.1016/s0009-2614(00)00662-x

Timings for individual modules:

Sum of individual times          ...      330.382 sec (=   5.506 min)
Startup calculation              ...       13.382 sec (=   0.223 min)   4.1 %
SCF iterations                   ...      158.065 sec (=   2.634 min)  47.8 %
Property integrals               ...       23.669 sec (=   0.394 min)   7.2 %
SCF Response                     ...       40.124 sec (=   0.669 min)  12.1 %
Property calculations            ...       40.153 sec (=   0.669 min)  12.2 %
SCF Gradient evaluation          ...       54.858 sec (=   0.914 min)  16.6 %
Geometry relaxation              ...        0.131 sec (=   0.002 min)   0.0 %
                             ****ORCA TERMINATED NORMALLY****
TOTAL RUN TIME: 0 days 0 hours 5 minutes 33 seconds 446 msec
