
                                 *****************
                                 * O   R   C   A *
                                 *****************

                                            #,                                       
                                            ###                                      
                                            ####                                     
                                            #####                                    
                                            ######                                   
                                           ########,                                 
                                     ,,################,,,,,                         
                               ,,#################################,,                 
                          ,,##########################################,,             
                       ,#########################################, ''#####,          
                    ,#############################################,,   '####,        
                  ,##################################################,,,,####,       
                ,###########''''           ''''###############################       
              ,#####''   ,,,,##########,,,,          '''####'''          '####       
            ,##' ,,,,###########################,,,                        '##       
           ' ,,###''''                  '''############,,,                           
         ,,##''                                '''############,,,,        ,,,,,,###''
      ,#''                                            '''#######################'''  
     '                                                          ''''####''''         
             ,#######,   #######,   ,#######,      ##                                
            ,#'     '#,  ##    ##  ,#'     '#,    #''#        ,####,    ,#,          
            ##       ##  ##   ,#'  ##            #'  '#       #'       ,# #          
            ##       ##  #######   ##           ,######,      #####,      #          
            '#,     ,#'  ##    ##  '#,     ,#' ,#      #,     #,   #      #          
             '#######'   ##     ##  '#######'  #'      '#     '####' #    #          



                #########################################################
                #                        -***-                          #
                #          Department of theory and spectroscopy        #
                #                                                       #
                #                      Frank Neese                      #
                #                                                       #
                #     Directorship, Architecture, Infrastructure        #
                #                    SHARK, DRIVERS                     #
                #        Core code/Algorithms in most modules           #
                #                                                       #
                #        Max Planck Institute fuer Kohlenforschung      #
                #                Kaiser Wilhelm Platz 1                 #
                #                 D-45470 Muelheim/Ruhr                 #
                #                      Germany                          #
                #                                                       #
                #                  All rights reserved                  #
                #                        -***-                          #
                #########################################################


                         Program Version 6.1.0  -  RELEASE   -


 With contributions from (in alphabetic order):
[Max-Planck-Institut fuer Kohlenforschung]                               
  Daniel Aravena         : Magnetic Suceptibility                        
  Michael Atanasov       : Ab Initio Ligand Field Theory (pilot matlab implementation)
  Alexander A. Auer      : GIAO ZORA, VPT2 properties, NMR spectrum      
  Ute Becker             : All parallelization in ORCA, NUMFREQ, NUMCALC 
  Giovanni Bistoni       : ED, misc. LED, open-shell LED, HFLD           
  Dmytro Bykov           : pre 5.0 version of the SCF Hessian            
  Marcos Casanova-Páez   : Triplet and SCS-CIS(D). UHF-(DLPNO)-IP/EA/STEOM-CCSD. UHF-CVS-IP/STEOM-CCSD   
  Vijay G. Chilkuri      : MRCI spin determinant printing, contributions to CSF-ICE 
  Pauline Colinet        : FMM embedding                                 
  Dipayan Datta          : RHF DLPNO-CCSD density                        
  Achintya Kumar Dutta   : EOM-CC, STEOM-CC                              
  Nicolas Foglia         : Exact transition moments, OPA infrastructure, MCD improvements    
  Dmitry Ganyushin       : Spin-Orbit,Spin-Spin,Magnetic field MRCI      
  Miquel Garcia-Rates    : C-PCM and meta-GGA Hessian, CCSD/C-PCM, Gaussian charge scheme 
  Tiago L. C. Gouveia    : GS-ROHF, GS-ROCIS                             
  Yang Guo               : DLPNO-NEVPT2, F12-NEVPT2, CIM, IAO-localization        
  Andreas Hansen         : Spin unrestricted coupled pair/coupled cluster methods 
  Ingolf Harden          : AUTO-CI MPn and infrastructure                
  Benjamin Helmich-Paris : MC-RPA, TRAH-(SCF,CASSCF), AVAS, COSX integrals, SCF dyn. polar., MC-PDFT, srDFT 
  Lee Huntington         : MR-EOM, pCC                                   
  Robert Izsak           : Overlap fitted RIJCOSX, COSX-SCS-MP3, EOM     
  Riya Kayal             : Wick's Theorem for AUTO-CI, AUTO-CI UHF-CCSDT 
  Emily Kempfer          : AUTO-CI RHF CISDT and CCSDT, approximate NEVPT4
  Christian Kollmar      : KDIIS, OOCD, Brueckner-CCSD(T), CCSD density, CASPT2, CASPT2-K, improved NEVPT2 
  Axel Koslowski         : Symmetry handling                             
  Simone Kossmann        : meta-GGA functionals, TD-DFT gradient, OOMP2, (MP2 Hessian; deprecated post 5.0) 
  Lucas Lang             : DCDCAS, Hyperfine gauge corrections, ICE-SOC+SSC
  Marvin Lechner         : AUTO-CI (C++ implementation), FIC-MRCC        
  Spencer Leger          : CASSCF response                               
  Dagmar Lenk            : GEPOL surface, SMD, ORCA-2-JSON               
  Dimitrios Liakos       : Extrapolation schemes; Compound Job, Property file
  Dimitrios Manganas     : Further ROCIS development; embedding schemes. LFT, Crystal Embedding 
  Dimitrios Pantazis     : SARC Basis sets                               
  Anastasios Papadopoulos: AUTO-CI, single reference methods and gradients 
  Taras Petrenko         : pre 6.0 DFT Hessian and TD-DFT gradient,  ECA, NRVS 
  Petra Pikulova         : Analytic Raman intensities                    
  Peter Pinski           : DLPNO-MP2, DLPNO-MP2 Gradient                 
  Shashank Vittal Rao    : ES-AILFT, MagRelax                            
  Christoph Reimann      : Effective Core Potentials                     
  Marius Retegan         : Local ZFS, SOC                                
  Christoph Riplinger    : Optimizer, TS searches, QM/MM, DLPNO-CCSD(T), (RO)-DLPNO pert. Triples 
  Michael Roemelt        : Original ROCIS implementation, recursive CI coupling coefficients
  Masaaki Saitow         : Open-shell DLPNO-CCSD energy and density      
  Barbara Sandhoefer     : DKH picture change effects                    
  Yorick L. A. Schmerwitz: GMF and freeze-and-release deltaSCF, NEB S-IDPP initial path                    
  Kantharuban Sivalingam : CASSCF convergence/infrastructure, NEVPT2, NEVPT3, NEVPT4(SD), FIC-MRCI and CEPA variants
  Bernardo de Souza      : ESD, SOC TD-DFT                               
  Georgi L. Stoychev     : AutoAux, RI-MP2 NMR, DLPNO-MP2 response, X2C  
  Van Anh Tran           : RI-MP2 g-tensors                              
  Willem Van den Heuvel  : Paramagnetic NMR                              
  Zikuan Wang            : NOTCH, Electric field optimization            
  Frank Wennmohs         : Technical directorship and infrastructure     
  Hang Xu                : AUTO-CI-Response properties                   
                                                                         
[FACCTs GmbH]                                                            
  Markus Bursch, Nicolas Foglia, Miquel Garcia-Rates, Ingolf Harden, Hagen Neugebauer, Anastasios Papadopoulos, 
  Christoph Riplinger, Bernardo de Souza, Georgi L. Stoychev                                                    
                                                                 
  APM, various basis sets, CI-OPT, improved COSX, DLPNO-Multilevel,           
  DOCKER, DRACO, updates on ESD, Fragmentator, GOAT, IRC, LR-CPCM, L-BFGS, MBIS, meta-GGA TD-DFT gradient, ML-optimized integration grids, 
  MM, NACMEs, nearIR, NEB, NEB-TS, NL-DFT gradient (VV10), 2- and 3-layer-ONIOM, interface openCOSMO-RS, QMMM,   
  Crystal-QMMM, RESP, rigid body optimization, SF, symmetry and pop. for TD-DFT, various functionals, SOLVATOR                                   
                                                                         
[Other institutions]                                                     
  V. Asgeirsson          : NEB                                           
  Christoph Bannwarth    : sTDA-DFT, sTD-DFT, PBEh-3c, B97-3c, D3        
  Giovanni Bistoni       : ETS/NOCV, ADLD/ADEX, COVALED                  
  Martin Brehm           : Molecular dynamics                            
  Ronald Cardenas        : ETS/NOCV                                      
  Martina Colucci        : COVALED                                       
  Sebastian Ehlert       : rSCAN, r2SCAN, r2SCAN-3c, D4, dhf basis sets  
  Marvin Friede          : D4 for Fr, Ra, Ac-Lr                          
  Lars Goerigk           : TD-DFT with DH, B97 family of functionals     
  Stefan Grimme          : VdW corrections, initial TS optimization, DFT functionals, gCP, sTDA/sTD-DF 
  Waldemar Hujo          : DFT-NL                                        
  H. Jonsson             : NEB                                           
  Holger Kruse           : gCP                                           
  Marcel Mueller         : wB97X-3c, vDZP basis set                      
  Hagen Neugebauer       : wr2SCAN, Native XTB                           
  Gianluca Regni         : ADLD/ADEX                                     
  Tobias Risthaus        : pre 6.0 range-separated hybrid DFT and stability analysis
  Lukas Wittmann         : regularized MP2, r2SCAN double-hybrids, wr2SCAN        
                                                                         
We gratefully acknowledge several colleagues who have allowed us to      
interface, adapt or use parts of their codes:                            
  Ed Valeev, F. Pavosevic, A. Kumar             : LibInt (2-el integral package), F12 methods 
  Garnet Chan, S. Sharma, J. Yang, R. Olivares  : DMRG                   
  Ulf Ekstrom                                   : XCFun DFT Library      
  Mihaly Kallay                                 : mrcc  (arbitrary order and MRCC methods)
  Frank Weinhold                                : gennbo (NPA and NBO analysis)           
  Simon Mueller                                 : openCOSMO-RS                            
  Christopher J. Cramer and Donald G. Truhlar   : smd solvation model                     
  S Lehtola, MJT Oliveira, MAL Marques          : LibXC Library                           
  Liviu Ungur et al                             : ANISO software                          


 Your calculation uses the libint2 library for the computation of 2-el integrals
 For citations please refer to: http://libint.valeyev.net

 Your ORCA version has been built with support for libXC version: 7.0.0
 For citations please refer to: https://libxc.gitlab.io

 This ORCA versions uses:
   CBLAS   interface :  Fast vector & matrix operations
   LAPACKE interface :  Fast linear algebra routines
   Shared memory     :  Shared parallel matrices


  ***********************************
  * Starting time: Thu Sep 11 17:23:30 2025
  * Host name:     DESKTOP-SI45VP7
  * Process ID:    20684
  * Working dir.:  C:\orca_jobs\ex1
  ***********************************

NOTE: MaxCore=1500 MB was set to SCF,MP2,MDCI,CIPSI,MRCI,RASCI and CIS
      => If you want to overwrite this, your respective input block should be placed after the MaxCore statement
================================================================================

----- Orbital basis set information -----
Your calculation utilizes the basis: def2-TZVP
   F. Weigend and R. Ahlrichs, Phys. Chem. Chem. Phys. 7, 3297 (2005).

----- AuxJ basis set information -----
Your calculation utilizes the auxiliary basis: def2/J
   H-Rn: F. Weigend, Phys. Chem. Chem. Phys. 8, 1057 (2006).
   Fr-Lr: K. Eichkorn, F. Weigend, O. Treutler, R. Ahlrichs; Theor. Chem. Acc. 97, 119 (1997).

================================================================================
                                        WARNINGS
                       Please study these warnings very carefully!
================================================================================



WARNING: Found flag for RIJCOSX approximation but no HF exchange needed!
  ===> : RIJCOSX  will be disabled and Split-RI-J is turned on

WARNING: Geometry Optimization
  ===> : Switching off AutoStart
         For restart on a previous wavefunction, please use MOREAD

================================================================================
                                       INPUT FILE
================================================================================
NAME = C:\orca_jobs\ex1\PBE.INP
|  1> ! UKS PBE def2-TZVP RIJCOSX def2/J Opt Freq TightSCF
|  2> 
|  3> %pal 
|  4>   nprocs 16
|  5> end
|  6> %maxcore 1500
|  7> 
|  8> %scf
|  9>   MaxIter   1000
| 10> end
| 11> 
| 12> %output
| 13>   Print[P_Mulliken] 1
| 14>   Print[P_Loewdin] 1
| 15>   XYZFile true
| 16> end
| 17> 
| 18> 
| 19> * xyz 0 1
| 20> C      0.02296308   -1.85996995    0.00000000
| 21> C      0.00798067   -1.16244008    1.20816295
| 22> C     -0.02331454    0.23192082    1.20824560
| 23> C     -0.03844324    0.92941901    0.00000000
| 24> C     -0.02331454    0.23192082   -1.20824560
| 25> C      0.00798067   -1.16244008   -1.20816295
| 26> H      0.04718689   -2.95931340    0.00000000
| 27> H      0.01953870   -1.71237863    2.16035820
| 28> H     -0.03575925    0.78177634   -2.16050635
| 29> H      0.01953870   -1.71237863   -2.16035820
| 30> O     -0.07045338    2.35906064    0.00000000
| 31> H      0.82708134    2.69969202    0.00000000
| 32> Cl    -0.04323187    1.11194551    2.73230591
| 33> *
| 34> 
| 35> 
| 36>                          ****END OF INPUT****
================================================================================

                       *****************************
                       * Geometry Optimization Run *
                       *****************************

Geometry optimization settings:
Update method            Update   .... BFGS
Choice of coordinates    CoordSys .... (2022) Redundant Internals
Initial Hessian          InHess   .... Almloef's Model
Max. no of cycles        MaxIter  .... 50

Convergence Tolerances:
Energy Change            TolE     ....  5.0000e-06 Eh
Max. Gradient            TolMAXG  ....  3.0000e-04 Eh/bohr
RMS Gradient             TolRMSG  ....  1.0000e-04 Eh/bohr
Max. Displacement        TolMAXD  ....  4.0000e-03 bohr
RMS Displacement         TolRMSD  ....  2.0000e-03 bohr
Strict Convergence                .... False

------------------------------------------------------------------------------
                        ORCA OPTIMIZATION COORDINATE SETUP
------------------------------------------------------------------------------

The optimization will be done in redundant internal coordinates (2022)
Making redundant internal coordinates   ...  (2022 redundants) done
Evaluating the initial hessian          ...  (Almloef) done
Evaluating the coordinates              ...  done
Calculating the B-matrix                .... done
Calculating the G-matrix                .... done
The number of degrees of freedom        ....   58

    -----------------------------------------------------------------
                    Redundant Internal Coordinates


    -----------------------------------------------------------------
         Definition                    Initial Value    Approx d2E/dq
    -----------------------------------------------------------------
      1. B(C   1,C   0)                  1.3951         0.613098   
      2. B(C   2,C   1)                  1.3947         0.614074   
      3. B(C   3,C   2)                  1.3952         0.612969   
      4. B(C   4,C   3)                  1.3952         0.612969   
      5. B(C   5,C   4)                  1.3947         0.614074   
      6. B(C   5,C   0)                  1.3951         0.613098   
      7. B(H   6,C   0)                  1.0996         0.347609   
      8. B(H   7,C   1)                  1.0997         0.347551   
      9. B(H   8,C   4)                  1.0997         0.347519   
     10. B(H   9,C   5)                  1.0997         0.347551   
     11. B(O  10,C   3)                  1.4300         0.483123   
     12. B(H  11,O  10)                  0.9600         0.519958   
     13. B(Cl 12,C   2)                  1.7600         0.360100   
     14. A(C   1,C   0,C   5)          119.9888         0.432322   
     15. A(C   1,C   0,H   6)          120.0056         0.350146   
     16. A(C   5,C   0,H   6)          120.0056         0.350146   
     17. A(C   0,C   1,C   2)          120.0090         0.432445   
     18. A(C   2,C   1,H   7)          120.0106         0.350230   
     19. A(C   0,C   1,H   7)          119.9804         0.350136   
     20. A(C   3,C   2,Cl 12)          119.9877         0.410906   
     21. A(C   1,C   2,Cl 12)          120.0128         0.411037   
     22. A(C   1,C   2,C   3)          119.9995         0.432429   
     23. A(C   2,C   3,O  10)          120.0029         0.411606   
     24. A(C   2,C   3,C   4)          119.9942         0.432289   
     25. A(C   4,C   3,O  10)          120.0029         0.411606   
     26. A(C   5,C   4,H   8)          120.0128         0.350225   
     27. A(C   3,C   4,H   8)          119.9877         0.350118   
     28. A(C   3,C   4,C   5)          119.9995         0.432429   
     29. A(C   4,C   5,H   9)          120.0106         0.350230   
     30. A(C   0,C   5,H   9)          119.9804         0.350136   
     31. A(C   0,C   5,C   4)          120.0090         0.432445   
     32. A(C   3,O  10,H  11)          109.5000         0.354684   
     33. D(H   7,C   1,C   0,C   5)    179.9847         0.025976   
     34. D(H   7,C   1,C   0,H   6)     -0.0520         0.025976   
     35. D(C   2,C   1,C   0,H   6)   -179.9729         0.025976   
     36. D(C   2,C   1,C   0,C   5)      0.0638         0.025976   
     37. D(Cl 12,C   2,C   1,C   0)    179.9619         0.026063   
     38. D(C   3,C   2,C   1,C   0)     -0.0568         0.026063   
     39. D(C   3,C   2,C   1,H   7)   -179.9777         0.026063   
     40. D(Cl 12,C   2,C   1,H   7)      0.0410         0.026063   
     41. D(O  10,C   3,C   2,Cl 12)     -0.0151         0.025964   
     42. D(O  10,C   3,C   2,C   1)   -179.9964         0.025964   
     43. D(C   4,C   3,C   2,Cl 12)   -179.9688         0.025964   
     44. D(C   4,C   3,C   2,C   1)      0.0499         0.025964   
     45. D(H   8,C   4,C   3,C   2)    179.9688         0.025964   
     46. D(C   5,C   4,C   3,O  10)    179.9964         0.025964   
     47. D(C   5,C   4,C   3,C   2)     -0.0499         0.025964   
     48. D(H   8,C   4,C   3,O  10)      0.0151         0.025964   
     49. D(H   9,C   5,C   4,H   8)     -0.0410         0.026063   
     50. D(C   0,C   5,C   4,H   8)   -179.9619         0.026063   
     51. D(C   0,C   5,C   4,C   3)      0.0568         0.026063   
     52. D(H   9,C   5,C   0,H   6)      0.0520         0.025976   
     53. D(H   9,C   5,C   0,C   1)   -179.9847         0.025976   
     54. D(H   9,C   5,C   4,C   3)    179.9777         0.026063   
     55. D(C   4,C   5,C   0,H   6)    179.9729         0.025976   
     56. D(C   4,C   5,C   0,C   1)     -0.0638         0.025976   
     57. D(H  11,O  10,C   3,C   4)    -90.0232         0.016748   
     58. D(H  11,O  10,C   3,C   2)     90.0232         0.016748   
    -----------------------------------------------------------------

Number of atoms                         .... 13
Number of degrees of freedom            .... 58


         *************************************************************
         *                GEOMETRY OPTIMIZATION CYCLE   1            *
         *************************************************************
---------------------------------
CARTESIAN COORDINATES (ANGSTROEM)
---------------------------------
  C      0.022963   -1.859970    0.000000
  C      0.007981   -1.162440    1.208163
  C     -0.023315    0.231921    1.208246
  C     -0.038443    0.929419    0.000000
  C     -0.023315    0.231921   -1.208246
  C      0.007981   -1.162440   -1.208163
  H      0.047187   -2.959313    0.000000
  H      0.019539   -1.712379    2.160358
  H     -0.035759    0.781776   -2.160506
  H      0.019539   -1.712379   -2.160358
  O     -0.070453    2.359061    0.000000
  H      0.827081    2.699692    0.000000
  Cl    -0.043232    1.111946    2.732306

----------------------------
CARTESIAN COORDINATES (A.U.)
----------------------------
  NO LB      ZA    FRAG     MASS         X           Y           Z
   0 C     6.0000    0    12.011    0.043394   -3.514834    0.000000
   1 C     6.0000    0    12.011    0.015081   -2.196693    2.283097
   2 C     6.0000    0    12.011   -0.044058    0.438267    2.283253
   3 C     6.0000    0    12.011   -0.072647    1.756347    0.000000
   4 C     6.0000    0    12.011   -0.044058    0.438267   -2.283253
   5 C     6.0000    0    12.011    0.015081   -2.196693   -2.283097
   6 H     1.0000    0     1.008    0.089170   -5.592292    0.000000
   7 H     1.0000    0     1.008    0.036923   -3.235927    4.082485
   8 H     1.0000    0     1.008   -0.067575    1.477343   -4.082765
   9 H     1.0000    0     1.008    0.036923   -3.235927   -4.082485
  10 O     8.0000    0    15.999   -0.133138    4.457979    0.000000
  11 H     1.0000    0     1.008    1.562957    5.101679    0.000000
  12 Cl   17.0000    0    35.453   -0.081696    2.101272    5.163310

--------------------------------
INTERNAL COORDINATES (ANGSTROEM)
--------------------------------
 C      0   0   0     0.000000000000     0.00000000     0.00000000
 C      1   0   0     1.395145191693     0.00000000     0.00000000
 C      2   1   0     1.394712055031   120.00898343     0.00000000
 C      3   2   1     1.395202505924   119.99948733   359.94315105
 C      4   3   2     1.395202505924   119.99421589     0.04987134
 C      5   4   3     1.394712055031   119.99948733   359.95012866
 H      1   2   3     1.099610300983   120.00559839   180.02707121
 H      2   1   3     1.099655305519   119.98041876   179.92089963
 H      5   4   3     1.099680180631   119.98771505   179.96882466
 H      6   5   4     1.099655305519   120.01055052   179.97772457
 O      4   3   2     1.429999943808   120.00288395   180.00355601
 H     11   4   3     0.959999120128   109.50004299    90.02315969
 Cl     3   2   1     1.759999995330   120.01279489   179.96185165

---------------------------
INTERNAL COORDINATES (A.U.)
---------------------------
 C      0   0   0     0.000000000000     0.00000000     0.00000000
 C      1   0   0     2.636442329357     0.00000000     0.00000000
 C      2   1   0     2.635623819687   120.00898343     0.00000000
 C      3   2   1     2.636550637557   119.99948733   359.94315105
 C      4   3   2     2.636550637557   119.99421589     0.04987134
 C      5   4   3     2.635623819687   119.99948733   359.95012866
 H      1   2   3     2.077962322897   120.00559839   180.02707121
 H      2   1   3     2.078047369144   119.98041876   179.92089963
 H      5   4   3     2.078094376293   119.98771505   179.96882466
 H      6   5   4     2.078047369144   120.01055052   179.97772457
 O      4   3   2     2.702308265321   120.00288395   180.00355601
 H     11   4   3     1.814135425847   109.50004299    90.02315969
 Cl     3   2   1     3.325917986876   120.01279489   179.96185165

---------------------
BASIS SET INFORMATION
---------------------
There are 4 groups of distinct atoms

 Group   1 Type C   : 11s6p2d1f contracted to 5s3p2d1f pattern {62111/411/11/1}
 Group   2 Type H   : 5s1p contracted to 3s1p pattern {311/1}
 Group   3 Type O   : 11s6p2d1f contracted to 5s3p2d1f pattern {62111/411/11/1}
 Group   4 Type Cl  : 14s9p3d1f contracted to 5s5p2d1f pattern {73211/51111/21/1}

Atom   0C    basis set group =>   1
Atom   1C    basis set group =>   1
Atom   2C    basis set group =>   1
Atom   3C    basis set group =>   1
Atom   4C    basis set group =>   1
Atom   5C    basis set group =>   1
Atom   6H    basis set group =>   2
Atom   7H    basis set group =>   2
Atom   8H    basis set group =>   2
Atom   9H    basis set group =>   2
Atom  10O    basis set group =>   3
Atom  11H    basis set group =>   2
Atom  12Cl   basis set group =>   4
---------------------------------
AUXILIARY/J BASIS SET INFORMATION
---------------------------------
There are 4 groups of distinct atoms

 Group   1 Type C   : 12s5p4d2f1g contracted to 6s4p3d1f1g pattern {711111/2111/211/2/1}
 Group   2 Type H   : 5s2p1d contracted to 3s1p1d pattern {311/2/1}
 Group   3 Type O   : 12s5p4d2f1g contracted to 6s4p3d1f1g pattern {711111/2111/211/2/1}
 Group   4 Type Cl  : 14s5p5d2f1g contracted to 8s4p3d1f1g pattern {71111111/2111/311/2/1}

Atom   0C    basis set group =>   1
Atom   1C    basis set group =>   1
Atom   2C    basis set group =>   1
Atom   3C    basis set group =>   1
Atom   4C    basis set group =>   1
Atom   5C    basis set group =>   1
Atom   6H    basis set group =>   2
Atom   7H    basis set group =>   2
Atom   8H    basis set group =>   2
Atom   9H    basis set group =>   2
Atom  10O    basis set group =>   3
Atom  11H    basis set group =>   2
Atom  12Cl   basis set group =>   4


           ************************************************************
           *        Program running with 16 parallel MPI-processes    *
           *              working on a common directory               *
           ************************************************************
------------------------------------------------------------------------------
                             ORCA STARTUP CALCULATIONS
                           -- RI-GTO INTEGRALS CHOSEN --
------------------------------------------------------------------------------
------------------------------------------------------------------------------
                   ___                                                        
                  /   \      - P O W E R E D   B Y -                         
                 /     \                                                     
                 |  |  |   _    _      __       _____    __    __             
                 |  |  |  | |  | |    /  \     |  _  \  |  |  /  |          
                  \  \/   | |  | |   /    \    | | | |  |  | /  /          
                 / \  \   | |__| |  /  /\  \   | |_| |  |  |/  /          
                |  |  |   |  __  | /  /__\  \  |    /   |      \           
                |  |  |   | |  | | |   __   |  |    \   |  |\   \          
                \     /   | |  | | |  |  |  |  | |\  \  |  | \   \       
                 \___/    |_|  |_| |__|  |__|  |_| \__\ |__|  \__/        
                                                                              
                      - O R C A' S   B I G   F R I E N D -                    
                                      &                                       
                       - I N T E G R A L  F E E D E R -                       
                                                                              
 v1 FN, 2020, v2 2021, v3 2022-2024                                           
------------------------------------------------------------------------------


----------------------
SHARK INTEGRAL PACKAGE
----------------------

Number of atoms                             ...     13
Number of basis functions                   ...    284
Number of shells                            ...    110
Maximum angular momentum                    ...      3
Integral batch strategy                     ... SHARK/LIBINT Hybrid
RI-J (if used) integral strategy            ... SPLIT-RIJ (Revised 2003 algorithm where possible)
Printlevel                                  ...      1
Contraction scheme used                     ... SEGMENTED contraction
Prescreening option                         ... SCHWARTZ
   Thresh                                   ... 2.500e-11
   Tcut                                     ... 2.500e-12
   Tpresel                                  ... 2.500e-12 
Coulomb Range Separation                    ... NOT USED
Exchange Range Separation                   ... NOT USED
Multipole approximations                    ... NOT USED
Finite Nucleus Model                        ... NOT USED
CABS basis                                  ... NOT available
Auxiliary Coulomb fitting basis             ... AVAILABLE
   # of basis functions in Aux-J            ...    449
   # of shells in Aux-J                     ...    147
   Maximum angular momentum in Aux-J        ...      4
Auxiliary J/K fitting basis                 ... NOT available
Auxiliary Correlation fitting basis         ... NOT available
Auxiliary 'external' fitting basis          ... NOT available

Checking pre-screening integrals            ... done (  0.0 sec) Dimension = 110
   => SHARK Basis and OBASIS are compatible. Storing Pre-screening
Shell pair information
Shell pair cut-off parameter TPreSel        ...   2.5e-12
Total number of shell pairs                 ...      6105
Shell pairs after pre-screening             ...      5590
Total number of primitive shell pairs       ...     19708
Primitive shell pairs kept                  ...     13396
          la=0 lb=0:   1331 shell pairs
          la=1 lb=0:   1557 shell pairs
          la=1 lb=1:    468 shell pairs
          la=2 lb=0:    824 shell pairs
          la=2 lb=1:    476 shell pairs
          la=2 lb=2:    132 shell pairs
          la=3 lb=0:    404 shell pairs
          la=3 lb=1:    236 shell pairs
          la=3 lb=2:    126 shell pairs
          la=3 lb=3:     36 shell pairs

Checking whether 4 symmetric matrices of dimension 284 fit in memory
:Max Core in MB      =   1500.00
 MB in use           =      9.05
 MB left             =   1490.95
 MB needed           =      1.24
 Data fit in memory  = YES
Calculating RI/J V-Matrix + Cholesky decomp.... done (  0.0 sec)
Calculating Nuclear repulsion               ... done (  0.0 sec) ENN=    401.810818027598 Eh

Diagonalization of the overlap matrix:
Smallest eigenvalue                        ... 1.041e-05
Time for diagonalization                   ...    0.004 sec
Threshold for overlap eigenvalues          ... 1.000e-07
Number of eigenvalues below threshold      ... 0
Time for construction of square roots      ...    0.003 sec
Total time needed                          ...    0.010 sec

-------------------
DFT GRID GENERATION
-------------------

General Integration Accuracy     IntAcc      ... 4.388
Radial Grid Type                 RadialGrid  ... OptM3 with GC (2021)
Angular Grid (max. ang.)         AngularGrid ... 4 (Lebedev-302)
Angular grid pruning method      GridPruning ... 4 (adaptive)
Weight generation scheme         WeightScheme... mBecke (2022)
Basis function cutoff            BFCut       ... 1.0000e-11
Integration weight cutoff        WCut        ... 1.0000e-14
Partially contracted basis set               ... off
Rotationally invariant grid construction     ... off
Angular grids for H and He will be reduced by one unit

Total number of grid points                  ...    65626
Total number of batches                      ...     1031
Average number of points per batch           ...       63
Average number of grid points per atom       ...     5048
Grids setup in   0.2 sec
Initializing property integral containers    ... done (  0.0 sec)

SHARK setup successfully completed in   0.4 seconds

Maximum memory used throughout the entire STARTUP-calculation: 21.9 MB


           ************************************************************
           *        Program running with 16 parallel MPI-processes    *
           *              working on a common directory               *
           ************************************************************
-------------------------------------------------------------------------------
                                 ORCA GUESS
                   Start orbitals & Density for SCF / CASSCF
-------------------------------------------------------------------------------

------------
SCF SETTINGS
------------
Hamiltonian:
 Density Functional     Method          .... DFT(GTOs)
 Exchange Functional    Exchange        .... PBE
   PBE kappa parameter   XKappa         ....  0.804000
   PBE mue parameter    XMuePBE         ....  0.219520
 Correlation Functional Correlation     .... PBE
   PBE beta parameter  CBetaPBE         ....  0.066725
 LDA part of GGA corr.  LDAOpt          .... PW91-LDA
 Gradients option       PostSCFGGA      .... off
   NL short-range parameter             ....  6.400000
 RI-approximation to the Coulomb term is turned on
   Number of AuxJ basis functions       .... 449


General Settings:
 Integral files         IntName         .... C:\orca_jobs\ex1\PBE
 Hartree-Fock type      HFTyp           .... UHF
 Total Charge           Charge          ....    0
 Multiplicity           Mult            ....    1
 Number of Electrons    NEL             ....   66
 Basis Dimension        Dim             ....  284
 Nuclear Repulsion      ENuc            ....    401.8108180276 Eh

Convergence Acceleration:
 AO-DIIS                CNVDIIS         .... on
   Start iteration      DIISMaxIt       ....    12
   Startup error        DIISStart       ....  0.200000
   # of expansion vecs  DIISMaxEq       ....     5
   Bias factor          DIISBfac        ....   1.050
   Max. coefficient     DIISMaxC        ....  10.000
 MO-DIIS                CNVKDIIS        .... off
 Trust-Rad. Augm. Hess. CNVTRAH         .... auto
   Auto Start mean grad. ratio tolernc. ....  1.125000
   Auto Start start iteration           ....    50
   Auto Start num. interpolation iter.  ....    10
   Max. Number of Micro iterations      ....    24
   Max. Number of Macro iterations      .... Maxiter - #DIIS iter
   Number of Davidson start vectors     ....     2
   Converg. threshold    (grad. norm)   ....   1.000e-05
   Grad. Scal. Fac. for Micro threshold ....   0.100
   Minimum threshold for Micro iter.    ....   1.000e-02
   NR start threshold (gradient norm)   ....   1.000e-04
   Initial trust radius                 ....   0.400
   Minimum AH scaling param. (alpha)    ....   1.000
   Maximum AH scaling param. (alpha)    .... 1000.000
   Quad. conv. algorithm                .... NR
   White noise on init. David. guess    .... on
   Maximum white noise                  ....   0.010
   Pseudo random numbers                .... off
   Inactive MOs                         .... canonical
   Orbital update algorithm             .... Taylor
   Preconditioner                       .... Diag
   Full preconditioner red. dimension   ....   250
 SOSCF                 CNVSOSCF           .... on
   Start iteration     SOSCFMaxIt         ....   150
   Startup grad/error  SOSCFStart         ....  0.003300
   Hessian update      SOSCFHessUp        .... L-BFGS
   Autom. constraints  SOSCFAutoConstrain .... off
 Level Shifting         CNVShift        .... on
   Level shift para.    LevelShift      ....    0.2500
   Turn off err/grad.   ShiftErr        ....    0.0010
 Zerner damping         CNVZerner       .... off
 Static damping         CNVDamp         .... on
   Fraction old density DampFac         ....    0.7000
   Max. Damping (<1)    DampMax         ....    0.9800
   Min. Damping (>=0)   DampMin         ....    0.0000
   Turn off err/grad.   DampErr         ....    0.1000

SCF Procedure:
 Maximum # iterations   MaxIter         ....  1000
 SCF integral mode      SCFMode         .... Direct
   Integral package                     .... SHARK and LIBINT hybrid scheme
 Reset frequency        DirectResetFreq ....    20
 Integral Threshold     Thresh          ....  2.500e-11 Eh
 Primitive CutOff       TCut            ....  2.500e-12 Eh

Convergence Tolerance:
 Convergence Check Mode ConvCheckMode   .... Total+1el-Energy
 Convergence forced     ConvForced      .... 0
 Energy Change          TolE            ....  1.000e-08 Eh
 1-El. energy change                    ....  1.000e-05 Eh
 Orbital Gradient       TolG            ....  1.000e-05
 Orbital Rotation angle TolX            ....  1.000e-05
 DIIS Error             TolErr          ....  5.000e-07

------------------------------
INITIAL GUESS: MODEL POTENTIAL
------------------------------
Loading Hartree-Fock densities                     ... done
Calculating cut-offs                               ... done
Initializing the effective Hamiltonian             ... done
Setting up the integral package (SHARK)            ... done
Starting the Coulomb interaction                   ... done (   0.0 sec)
Making the grid                                    ... done (   0.1 sec)
Mapping shells                                     ... done
Starting the XC term evaluation                    ... done (   0.0 sec)
  promolecular density results
     # of electrons  =     65.996887072
     EX              =    -67.671638349
     EC              =     -2.296003010
     EX+EC           =    -69.967641359
Transforming the Hamiltonian                       ... done (   0.0 sec)
Diagonalizing the Hamiltonian                      ... done (   0.0 sec)
Back transforming the eigenvectors                 ... done (   0.0 sec)
Now organizing SCF variables                       ... done
                      ------------------
                      INITIAL GUESS DONE (   0.2 sec)
                      ------------------
             **** ENERGY FILE WAS UPDATED (C:\orca_jobs\ex1\PBE.en.tmp) ****
Finished Guess after   0.3 sec
Maximum memory used throughout the entire GUESS-calculation: 14.1 MB


           ************************************************************
           *        Program running with 16 parallel MPI-processes    *
           *              working on a common directory               *
           ************************************************************

-------------------------------------------------------------------------------------------
                                      ORCA LEAN-SCF
                              memory conserving SCF solver
-------------------------------------------------------------------------------------------

----------------------------------------D-I-I-S--------------------------------------------
Iteration    Energy (Eh)           Delta-E    RMSDP     MaxDP     DIISErr   Damp  Time(sec)
-------------------------------------------------------------------------------------------
               ***  Starting incremental Fock matrix formation  ***
    1    -766.4655878827302331     0.00e+00  7.13e-03  1.19e-01  1.19e-01  0.700   0.3
    2    -766.5483594884217382    -8.28e-02  6.91e-03  1.20e-01  4.33e-02  0.700   0.3
                               ***Turning on AO-DIIS***
    3    -766.5749719506466135    -2.66e-02  2.71e-03  4.01e-02  9.67e-03  0.700   0.3
    4    -766.5913110473375127    -1.63e-02  3.50e-03  3.04e-02  5.34e-03  0.000   0.3
    5    -766.6295720931741471    -3.83e-02  2.42e-03  4.27e-02  6.80e-03  0.000   0.3
                              *** Initializing SOSCF ***
---------------------------------------S-O-S-C-F--------------------------------------
Iteration    Energy (Eh)           Delta-E    RMSDP     MaxDP     MaxGrad    Time(sec)
--------------------------------------------------------------------------------------
    6    -766.6300215175531321    -4.49e-04  7.26e-04  1.18e-02  1.82e-03     0.3
               *** Restarting incremental Fock matrix formation ***
    7    -766.6300682577641510    -4.67e-05  5.14e-04  8.29e-03  1.30e-04     0.3
    8    -766.6300687084049059    -4.51e-07  1.23e-04  1.39e-03  4.44e-04     0.3
    9    -766.6300705333849237    -1.82e-06  2.15e-04  3.28e-03  2.83e-04     0.3
   10    -766.6300714008048089    -8.67e-07  3.26e-05  5.79e-04  6.89e-05     0.3
   11    -766.6300713713692403     2.94e-08  3.29e-05  2.83e-04  8.98e-05     0.3
   12    -766.6300716017055947    -2.30e-07  1.40e-05  1.33e-04  1.79e-05     0.3
   13    -766.6300716069663395    -5.26e-09  7.67e-06  1.10e-04  2.79e-05     0.3
                 **** Energy Check signals convergence ****

               *****************************************************
               *                     SUCCESS                       *
               *           SCF CONVERGED AFTER  13 CYCLES          *
               *****************************************************

             **** ENERGY FILE WAS UPDATED (C:\orca_jobs\ex1\PBE.en.tmp) ****

----------------
TOTAL SCF ENERGY
----------------

Total Energy       :       -766.63007162309577 Eh          -20861.06480 eV

Components:
Nuclear Repulsion  :        401.81081802759792 Eh           10933.82822 eV
Electronic Energy  :      -1168.44088965069363 Eh          -31794.89303 eV
One Electron Energy:      -1848.55376747524929 Eh          -50301.70530 eV
Two Electron Energy:        680.11287782455565 Eh           18506.81227 eV

Virial components:
Potential Energy   :      -1531.18289283790136 Eh          -41665.60475 eV
Kinetic Energy     :        764.55282121480559 Eh           20804.53995 eV
Virial Ratio       :          2.00271694819593

DFT components:
N(Alpha)           :       33.000017924042 electrons
N(Beta)            :       33.000017924042 electrons
N(Total)           :       66.000035848084 electrons
E(X)               :      -68.378309819784 Eh       
E(C)               :       -2.301160926198 Eh       
E(XC)              :      -70.679470745982 Eh       

---------------
SCF CONVERGENCE
---------------

  Last Energy change         ...    5.2607e-09  Tolerance :   1.0000e-08
  Last MAX-Density change    ...    1.0996e-04  Tolerance :   1.0000e-07
  Last RMS-Density change    ...    7.6744e-06  Tolerance :   5.0000e-09
  Last DIIS Error            ...    1.8158e-03  Tolerance :   5.0000e-07
  Last Orbital Gradient      ...    2.7886e-05  Tolerance :   1.0000e-05
  Last Orbital Rotation      ...    6.3170e-05  Tolerance :   1.0000e-05


----------------------
UHF SPIN CONTAMINATION
----------------------

Warning: in a DFT calculation there is little theoretical justification to 
         calculate <S**2> as in Hartree-Fock theory. We will do it anyways
         but you should keep in mind that the values have only limited relevance

Expectation value of <S**2>     :     0.000000
Ideal value S*(S+1) for S=0.0   :     0.000000
Deviation                       :     0.000000

----------------
ORBITAL ENERGIES
----------------
                 SPIN UP ORBITALS
  NO   OCC          E(Eh)            E(eV) 
   0   1.0000    -100.664868     -2739.2303 
   1   1.0000     -18.772224      -510.8182 
   2   1.0000      -9.958300      -270.9791 
   3   1.0000      -9.952992      -270.8347 
   4   1.0000      -9.906112      -269.5590 
   5   1.0000      -9.902902      -269.4717 
   6   1.0000      -9.902008      -269.4473 
   7   1.0000      -9.901632      -269.4371 
   8   1.0000      -9.177991      -249.7458 
   9   1.0000      -7.001663      -190.5249 
  10   1.0000      -6.991413      -190.2460 
  11   1.0000      -6.990652      -190.2253 
  12   1.0000      -0.954300       -25.9678 
  13   1.0000      -0.812632       -22.1129 
  14   1.0000      -0.766847       -20.8670 
  15   1.0000      -0.687160       -18.6986 
  16   1.0000      -0.670492       -18.2450 
  17   1.0000      -0.566062       -15.4033 
  18   1.0000      -0.551967       -15.0198 
  19   1.0000      -0.497162       -13.5285 
  20   1.0000      -0.451437       -12.2842 
  21   1.0000      -0.436306       -11.8725 
  22   1.0000      -0.409442       -11.1415 
  23   1.0000      -0.391787       -10.6611 
  24   1.0000      -0.383147       -10.4260 
  25   1.0000      -0.346641        -9.4326 
  26   1.0000      -0.332123        -9.0375 
  27   1.0000      -0.328558        -8.9405 
  28   1.0000      -0.302057        -8.2194 
  29   1.0000      -0.275101        -7.4859 
  30   1.0000      -0.257544        -7.0081 
  31   1.0000      -0.239475        -6.5164 
  32   1.0000      -0.225433        -6.1343 
  33   0.0000      -0.057670        -1.5693 
  34   0.0000      -0.051546        -1.4026 
  35   0.0000      -0.021973        -0.5979 
  36   0.0000       0.010723         0.2918 
  37   0.0000       0.034566         0.9406 
  38   0.0000       0.054605         1.4859 
  39   0.0000       0.078992         2.1495 
  40   0.0000       0.085802         2.3348 
  41   0.0000       0.089391         2.4324 
  42   0.0000       0.113596         3.0911 
  43   0.0000       0.137034         3.7289 

                 SPIN DOWN ORBITALS
  NO   OCC          E(Eh)            E(eV) 
   0   1.0000    -100.664868     -2739.2303 
   1   1.0000     -18.772224      -510.8182 
   2   1.0000      -9.958300      -270.9791 
   3   1.0000      -9.952992      -270.8347 
   4   1.0000      -9.906112      -269.5590 
   5   1.0000      -9.902902      -269.4717 
   6   1.0000      -9.902008      -269.4473 
   7   1.0000      -9.901632      -269.4371 
   8   1.0000      -9.177991      -249.7458 
   9   1.0000      -7.001663      -190.5249 
  10   1.0000      -6.991413      -190.2460 
  11   1.0000      -6.990652      -190.2253 
  12   1.0000      -0.954300       -25.9678 
  13   1.0000      -0.812632       -22.1129 
  14   1.0000      -0.766847       -20.8670 
  15   1.0000      -0.687160       -18.6986 
  16   1.0000      -0.670492       -18.2450 
  17   1.0000      -0.566062       -15.4033 
  18   1.0000      -0.551967       -15.0198 
  19   1.0000      -0.497162       -13.5285 
  20   1.0000      -0.451437       -12.2842 
  21   1.0000      -0.436306       -11.8725 
  22   1.0000      -0.409442       -11.1415 
  23   1.0000      -0.391787       -10.6611 
  24   1.0000      -0.383147       -10.4260 
  25   1.0000      -0.346641        -9.4326 
  26   1.0000      -0.332123        -9.0375 
  27   1.0000      -0.328558        -8.9405 
  28   1.0000      -0.302057        -8.2194 
  29   1.0000      -0.275101        -7.4859 
  30   1.0000      -0.257544        -7.0081 
  31   1.0000      -0.239475        -6.5164 
  32   1.0000      -0.225433        -6.1343 
  33   0.0000      -0.057670        -1.5693 
  34   0.0000      -0.051546        -1.4026 
  35   0.0000      -0.021973        -0.5979 
  36   0.0000       0.010723         0.2918 
  37   0.0000       0.034566         0.9406 
  38   0.0000       0.054605         1.4859 
  39   0.0000       0.078992         2.1495 
  40   0.0000       0.085802         2.3348 
  41   0.0000       0.089391         2.4324 
  42   0.0000       0.113596         3.0911 
  43   0.0000       0.137034         3.7289 
*Only the first 10 virtual orbitals were printed.

                    ********************************
                    * MULLIKEN POPULATION ANALYSIS *
                    ********************************

--------------------------------------------
MULLIKEN ATOMIC CHARGES AND SPIN POPULATIONS
--------------------------------------------
   0 C :   -0.106111    0.000000
   1 C :   -0.163641    0.000000
   2 C :    0.126488    0.000000
   3 C :    0.126357    0.000000
   4 C :   -0.163179    0.000000
   5 C :   -0.084506    0.000000
   6 H :    0.108128    0.000000
   7 H :    0.115701    0.000000
   8 H :    0.109085    0.000000
   9 H :    0.107965    0.000000
  10 O :   -0.391455    0.000000
  11 H :    0.314192    0.000000
  12 Cl:   -0.099023    0.000000
Sum of atomic charges         :   -0.0000000
Sum of atomic spin populations:    0.0000000

-----------------------------------------------------
MULLIKEN REDUCED ORBITAL CHARGES AND SPIN POPULATIONS
-----------------------------------------------------
CHARGE
  0 C s       :     3.185526  s :     3.185526
      pz      :     0.913673  p :     2.828297
      px      :     0.972320
      py      :     0.942304
      dz2     :     0.029853  d :     0.085443
      dxz     :     0.022367
      dyz     :     0.018458
      dx2y2   :     0.009780
      dxy     :     0.004985
      f0      :     0.001743  f :     0.006844
      f+1     :     0.001185
      f-1     :     0.000790
      f+2     :     0.000863
      f-2     :     0.001155
      f+3     :     0.000486
      f-3     :     0.000621

  1 C s       :     3.224622  s :     3.224622
      pz      :     0.939259  p :     2.844437
      px      :     0.976118
      py      :     0.929060
      dz2     :     0.019210  d :     0.087561
      dxz     :     0.009088
      dyz     :     0.027567
      dx2y2   :     0.012280
      dxy     :     0.019417
      f0      :     0.001400  f :     0.007021
      f+1     :     0.000890
      f-1     :     0.000839
      f+2     :     0.001293
      f-2     :     0.000425
      f+3     :     0.001601
      f-3     :     0.000573

  2 C s       :     3.160075  s :     3.160075
      pz      :     0.765113  p :     2.547429
      px      :     1.010043
      py      :     0.772273
      dz2     :     0.036075  d :     0.156068
      dxz     :     0.026988
      dyz     :     0.051882
      dx2y2   :     0.015577
      dxy     :     0.025547
      f0      :     0.002301  f :     0.009940
      f+1     :     0.001320
      f-1     :     0.001295
      f+2     :     0.001863
      f-2     :     0.000963
      f+3     :     0.001629
      f-3     :     0.000569

  3 C s       :     3.032660  s :     3.032660
      pz      :     0.948624  p :     2.661929
      px      :     0.986475
      py      :     0.726830
      dz2     :     0.033650  d :     0.165179
      dxz     :     0.024737
      dyz     :     0.053582
      dx2y2   :     0.016629
      dxy     :     0.036580
      f0      :     0.003468  f :     0.013876
      f+1     :     0.001560
      f-1     :     0.001459
      f+2     :     0.002732
      f-2     :     0.001171
      f+3     :     0.002058
      f-3     :     0.001428

  4 C s       :     3.249508  s :     3.249508
      pz      :     0.932620  p :     2.828101
      px      :     0.983234
      py      :     0.912247
      dz2     :     0.014109  d :     0.078644
      dxz     :     0.009611
      dyz     :     0.030672
      dx2y2   :     0.006793
      dxy     :     0.017459
      f0      :     0.001347  f :     0.006927
      f+1     :     0.000901
      f-1     :     0.000841
      f+2     :     0.001330
      f-2     :     0.000430
      f+3     :     0.001535
      f-3     :     0.000544

  5 C s       :     3.175106  s :     3.175106
      pz      :     0.940717  p :     2.818798
      px      :     0.967411
      py      :     0.910670
      dz2     :     0.016005  d :     0.083727
      dxz     :     0.009102
      dyz     :     0.030385
      dx2y2   :     0.010108
      dxy     :     0.018128
      f0      :     0.001457  f :     0.006875
      f+1     :     0.000864
      f-1     :     0.000788
      f+2     :     0.001306
      f-2     :     0.000405
      f+3     :     0.001539
      f-3     :     0.000516

  6 H s       :     0.870324  s :     0.870324
      pz      :     0.003627  p :     0.021548
      px      :     0.004869
      py      :     0.013052

  7 H s       :     0.862644  s :     0.862644
      pz      :     0.010943  p :     0.021655
      px      :     0.004770
      py      :     0.005942

  8 H s       :     0.869350  s :     0.869350
      pz      :     0.010705  p :     0.021565
      px      :     0.004825
      py      :     0.006036

  9 H s       :     0.870530  s :     0.870530
      pz      :     0.010677  p :     0.021505
      px      :     0.004829
      py      :     0.005999

 10 O s       :     3.775819  s :     3.775819
      pz      :     1.885321  p :     4.585702
      px      :     1.410643
      py      :     1.289737
      dz2     :     0.004444  d :     0.028393
      dxz     :     0.001665
      dyz     :     0.003892
      dx2y2   :     0.011252
      dxy     :     0.007139
      f0      :     0.000193  f :     0.001541
      f+1     :     0.000321
      f-1     :     0.000352
      f+2     :     0.000109
      f-2     :     0.000021
      f+3     :     0.000179
      f-3     :     0.000365

 11 H s       :     0.636320  s :     0.636320
      pz      :     0.018203  p :     0.049488
      px      :     0.018828
      py      :     0.012456

 12 Cls       :     5.899403  s :     5.899403
      pz      :     3.428080  p :    11.132764
      px      :     3.907233
      py      :     3.797451
      dz2     :     0.017115  d :     0.061451
      dxz     :     0.014567
      dyz     :     0.020380
      dx2y2   :     0.003881
      dxy     :     0.005509
      f0      :     0.001075  f :     0.005405
      f+1     :     0.000657
      f-1     :     0.002092
      f+2     :     0.000754
      f-2     :     0.000643
      f+3     :     0.000100
      f-3     :     0.000085


SPIN
  0 C s       :     0.000000  s :     0.000000
      pz      :     0.000000  p :     0.000000
      px      :     0.000000
      py      :     0.000000
      dz2     :     0.000000  d :     0.000000
      dxz     :     0.000000
      dyz     :     0.000000
      dx2y2   :     0.000000
      dxy     :     0.000000
      f0      :     0.000000  f :     0.000000
      f+1     :     0.000000
      f-1     :     0.000000
      f+2     :     0.000000
      f-2     :     0.000000
      f+3     :     0.000000
      f-3     :     0.000000

  1 C s       :     0.000000  s :     0.000000
      pz      :     0.000000  p :     0.000000
      px      :     0.000000
      py      :     0.000000
      dz2     :     0.000000  d :     0.000000
      dxz     :     0.000000
      dyz     :     0.000000
      dx2y2   :     0.000000
      dxy     :     0.000000
      f0      :     0.000000  f :     0.000000
      f+1     :     0.000000
      f-1     :     0.000000
      f+2     :     0.000000
      f-2     :     0.000000
      f+3     :     0.000000
      f-3     :     0.000000

  2 C s       :     0.000000  s :     0.000000
      pz      :     0.000000  p :     0.000000
      px      :     0.000000
      py      :     0.000000
      dz2     :     0.000000  d :     0.000000
      dxz     :     0.000000
      dyz     :     0.000000
      dx2y2   :     0.000000
      dxy     :     0.000000
      f0      :     0.000000  f :     0.000000
      f+1     :     0.000000
      f-1     :     0.000000
      f+2     :     0.000000
      f-2     :     0.000000
      f+3     :     0.000000
      f-3     :     0.000000

  3 C s       :     0.000000  s :     0.000000
      pz      :     0.000000  p :     0.000000
      px      :     0.000000
      py      :     0.000000
      dz2     :     0.000000  d :     0.000000
      dxz     :     0.000000
      dyz     :     0.000000
      dx2y2   :     0.000000
      dxy     :     0.000000
      f0      :     0.000000  f :     0.000000
      f+1     :     0.000000
      f-1     :     0.000000
      f+2     :     0.000000
      f-2     :     0.000000
      f+3     :     0.000000
      f-3     :     0.000000

  4 C s       :     0.000000  s :     0.000000
      pz      :     0.000000  p :     0.000000
      px      :     0.000000
      py      :     0.000000
      dz2     :     0.000000  d :     0.000000
      dxz     :     0.000000
      dyz     :     0.000000
      dx2y2   :     0.000000
      dxy     :     0.000000
      f0      :     0.000000  f :     0.000000
      f+1     :     0.000000
      f-1     :     0.000000
      f+2     :     0.000000
      f-2     :     0.000000
      f+3     :     0.000000
      f-3     :     0.000000

  5 C s       :     0.000000  s :     0.000000
      pz      :     0.000000  p :     0.000000
      px      :     0.000000
      py      :     0.000000
      dz2     :     0.000000  d :     0.000000
      dxz     :     0.000000
      dyz     :     0.000000
      dx2y2   :     0.000000
      dxy     :     0.000000
      f0      :     0.000000  f :     0.000000
      f+1     :     0.000000
      f-1     :     0.000000
      f+2     :     0.000000
      f-2     :     0.000000
      f+3     :     0.000000
      f-3     :     0.000000

  6 H s       :     0.000000  s :     0.000000
      pz      :     0.000000  p :     0.000000
      px      :     0.000000
      py      :     0.000000

  7 H s       :     0.000000  s :     0.000000
      pz      :     0.000000  p :     0.000000
      px      :     0.000000
      py      :     0.000000

  8 H s       :     0.000000  s :     0.000000
      pz      :     0.000000  p :     0.000000
      px      :     0.000000
      py      :     0.000000

  9 H s       :     0.000000  s :     0.000000
      pz      :     0.000000  p :     0.000000
      px      :     0.000000
      py      :     0.000000

 10 O s       :     0.000000  s :     0.000000
      pz      :     0.000000  p :     0.000000
      px      :     0.000000
      py      :     0.000000
      dz2     :     0.000000  d :     0.000000
      dxz     :     0.000000
      dyz     :     0.000000
      dx2y2   :     0.000000
      dxy     :     0.000000
      f0      :     0.000000  f :     0.000000
      f+1     :     0.000000
      f-1     :     0.000000
      f+2     :     0.000000
      f-2     :     0.000000
      f+3     :     0.000000
      f-3     :     0.000000

 11 H s       :     0.000000  s :     0.000000
      pz      :     0.000000  p :     0.000000
      px      :     0.000000
      py      :     0.000000

 12 Cls       :     0.000000  s :     0.000000
      pz      :     0.000000  p :     0.000000
      px      :     0.000000
      py      :     0.000000
      dz2     :     0.000000  d :     0.000000
      dxz     :     0.000000
      dyz     :     0.000000
      dx2y2   :     0.000000
      dxy     :     0.000000
      f0      :     0.000000  f :     0.000000
      f+1     :     0.000000
      f-1     :     0.000000
      f+2     :     0.000000
      f-2     :     0.000000
      f+3     :     0.000000
      f-3     :     0.000000



                     *******************************
                     * LOEWDIN POPULATION ANALYSIS *
                     *******************************

-------------------------------------------
LOEWDIN ATOMIC CHARGES AND SPIN POPULATIONS
-------------------------------------------
   0 C :   -0.144434    0.000000
   1 C :   -0.143565    0.000000
   2 C :   -0.399439    0.000000
   3 C :   -0.251151    0.000000
   4 C :   -0.120382    0.000000
   5 C :   -0.143059    0.000000
   6 H :    0.149977    0.000000
   7 H :    0.153367    0.000000
   8 H :    0.155004    0.000000
   9 H :    0.149135    0.000000
  10 O :    0.027066    0.000000
  11 H :    0.179318    0.000000
  12 Cl:    0.388162    0.000000

----------------------------------------------------
LOEWDIN REDUCED ORBITAL CHARGES AND SPIN POPULATIONS
----------------------------------------------------
CHARGE
  0 C s       :     2.772223  s :     2.772223
      pz      :     1.066534  p :     2.946316
      px      :     0.893086
      py      :     0.986696
      dz2     :     0.139567  d :     0.383305
      dxz     :     0.078591
      dyz     :     0.101969
      dx2y2   :     0.051091
      dxy     :     0.012086
      f0      :     0.012064  f :     0.042590
      f+1     :     0.003740
      f-1     :     0.008197
      f+2     :     0.007672
      f-2     :     0.007726
      f+3     :     0.000582
      f-3     :     0.002609

  1 C s       :     2.774727  s :     2.774727
      pz      :     1.018493  p :     2.946558
      px      :     0.893537
      py      :     1.034529
      dz2     :     0.093599  d :     0.379794
      dxz     :     0.027810
      dyz     :     0.137248
      dx2y2   :     0.055460
      dxy     :     0.065677
      f0      :     0.009651  f :     0.042486
      f+1     :     0.004169
      f-1     :     0.007087
      f+2     :     0.007850
      f-2     :     0.002886
      f+3     :     0.005713
      f-3     :     0.005130

  2 C s       :     2.787806  s :     2.787806
      pz      :     0.968667  p :     2.960784
      px      :     0.935165
      py      :     1.056952
      dz2     :     0.153766  d :     0.590659
      dxz     :     0.086303
      dyz     :     0.202872
      dx2y2   :     0.066817
      dxy     :     0.080901
      f0      :     0.015151  f :     0.060190
      f+1     :     0.006379
      f-1     :     0.010466
      f+2     :     0.011411
      f-2     :     0.006762
      f+3     :     0.005149
      f-3     :     0.004872

  3 C s       :     2.733889  s :     2.733889
      pz      :     1.080867  p :     2.796521
      px      :     0.894667
      py      :     0.820987
      dz2     :     0.147901  d :     0.636952
      dxz     :     0.079484
      dyz     :     0.212122
      dx2y2   :     0.105526
      dxy     :     0.091919
      f0      :     0.021158  f :     0.083789
      f+1     :     0.006249
      f-1     :     0.012416
      f+2     :     0.015803
      f-2     :     0.007825
      f+3     :     0.009588
      f-3     :     0.010749

  4 C s       :     2.773011  s :     2.773011
      pz      :     0.993447  p :     2.935939
      px      :     0.896895
      py      :     1.045597
      dz2     :     0.082114  d :     0.369382
      dxz     :     0.029896
      dyz     :     0.145123
      dx2y2   :     0.051715
      dxy     :     0.060535
      f0      :     0.009414  f :     0.042050
      f+1     :     0.004320
      f-1     :     0.007289
      f+2     :     0.008069
      f-2     :     0.003106
      f+3     :     0.005120
      f-3     :     0.004732

  5 C s       :     2.772276  s :     2.772276
      pz      :     1.009704  p :     2.943975
      px      :     0.888429
      py      :     1.045842
      dz2     :     0.091015  d :     0.384190
      dxz     :     0.028397
      dyz     :     0.148370
      dx2y2   :     0.053285
      dxy     :     0.063124
      f0      :     0.010421  f :     0.042618
      f+1     :     0.004065
      f-1     :     0.006956
      f+2     :     0.008322
      f-2     :     0.002868
      f+3     :     0.005185
      f-3     :     0.004801

  6 H s       :     0.792975  s :     0.792975
      pz      :     0.010335  p :     0.057048
      px      :     0.013008
      py      :     0.033705

  7 H s       :     0.788941  s :     0.788941
      pz      :     0.028674  p :     0.057691
      px      :     0.012986
      py      :     0.016032

  8 H s       :     0.787420  s :     0.787420
      pz      :     0.028179  p :     0.057576
      px      :     0.013077
      py      :     0.016319

  9 H s       :     0.793858  s :     0.793858
      pz      :     0.027902  p :     0.057007
      px      :     0.012926
      py      :     0.016179

 10 O s       :     3.364594  s :     3.364594
      pz      :     1.775722  p :     4.542280
      px      :     1.433920
      py      :     1.332639
      dz2     :     0.008380  d :     0.061988
      dxz     :     0.000645
      dyz     :     0.010390
      dx2y2   :     0.023776
      dxy     :     0.018798
      f0      :     0.000311  f :     0.004071
      f+1     :     0.000491
      f-1     :     0.000667
      f+2     :     0.000468
      f-2     :     0.000006
      f+3     :     0.001010
      f-3     :     0.001118

 11 H s       :     0.661141  s :     0.661141
      pz      :     0.047172  p :     0.159541
      px      :     0.080639
      py      :     0.031730

 12 Cls       :     5.566789  s :     5.566789
      pz      :     3.389036  p :    10.936516
      px      :     3.837450
      py      :     3.710029
      dz2     :     0.028311  d :     0.097489
      dxz     :     0.021714
      dyz     :     0.032991
      dx2y2   :     0.006397
      dxy     :     0.008075
      f0      :     0.002426  f :     0.011044
      f+1     :     0.001388
      f-1     :     0.003910
      f+2     :     0.001556
      f-2     :     0.001404
      f+3     :     0.000193
      f-3     :     0.000168


SPIN
  0 C s       :     0.000000  s :     0.000000
      pz      :     0.000000  p :     0.000000
      px      :     0.000000
      py      :     0.000000
      dz2     :     0.000000  d :     0.000000
      dxz     :     0.000000
      dyz     :     0.000000
      dx2y2   :     0.000000
      dxy     :     0.000000
      f0      :     0.000000  f :     0.000000
      f+1     :     0.000000
      f-1     :     0.000000
      f+2     :     0.000000
      f-2     :     0.000000
      f+3     :     0.000000
      f-3     :     0.000000

  1 C s       :     0.000000  s :     0.000000
      pz      :     0.000000  p :     0.000000
      px      :     0.000000
      py      :     0.000000
      dz2     :     0.000000  d :     0.000000
      dxz     :     0.000000
      dyz     :     0.000000
      dx2y2   :     0.000000
      dxy     :     0.000000
      f0      :     0.000000  f :     0.000000
      f+1     :     0.000000
      f-1     :     0.000000
      f+2     :     0.000000
      f-2     :     0.000000
      f+3     :     0.000000
      f-3     :     0.000000

  2 C s       :     0.000000  s :     0.000000
      pz      :     0.000000  p :     0.000000
      px      :     0.000000
      py      :     0.000000
      dz2     :     0.000000  d :     0.000000
      dxz     :     0.000000
      dyz     :     0.000000
      dx2y2   :     0.000000
      dxy     :     0.000000
      f0      :     0.000000  f :     0.000000
      f+1     :     0.000000
      f-1     :     0.000000
      f+2     :     0.000000
      f-2     :     0.000000
      f+3     :     0.000000
      f-3     :     0.000000

  3 C s       :     0.000000  s :     0.000000
      pz      :     0.000000  p :     0.000000
      px      :     0.000000
      py      :     0.000000
      dz2     :     0.000000  d :     0.000000
      dxz     :     0.000000
      dyz     :     0.000000
      dx2y2   :     0.000000
      dxy     :     0.000000
      f0      :     0.000000  f :     0.000000
      f+1     :     0.000000
      f-1     :     0.000000
      f+2     :     0.000000
      f-2     :     0.000000
      f+3     :     0.000000
      f-3     :     0.000000

  4 C s       :     0.000000  s :     0.000000
      pz      :     0.000000  p :     0.000000
      px      :     0.000000
      py      :     0.000000
      dz2     :     0.000000  d :     0.000000
      dxz     :     0.000000
      dyz     :     0.000000
      dx2y2   :     0.000000
      dxy     :     0.000000
      f0      :     0.000000  f :     0.000000
      f+1     :     0.000000
      f-1     :     0.000000
      f+2     :     0.000000
      f-2     :     0.000000
      f+3     :     0.000000
      f-3     :     0.000000

  5 C s       :     0.000000  s :     0.000000
      pz      :     0.000000  p :     0.000000
      px      :     0.000000
      py      :     0.000000
      dz2     :     0.000000  d :     0.000000
      dxz     :     0.000000
      dyz     :     0.000000
      dx2y2   :     0.000000
      dxy     :     0.000000
      f0      :     0.000000  f :     0.000000
      f+1     :     0.000000
      f-1     :     0.000000
      f+2     :     0.000000
      f-2     :     0.000000
      f+3     :     0.000000
      f-3     :     0.000000

  6 H s       :     0.000000  s :     0.000000
      pz      :     0.000000  p :     0.000000
      px      :     0.000000
      py      :     0.000000

  7 H s       :     0.000000  s :     0.000000
      pz      :     0.000000  p :     0.000000
      px      :     0.000000
      py      :     0.000000

  8 H s       :     0.000000  s :     0.000000
      pz      :     0.000000  p :     0.000000
      px      :     0.000000
      py      :     0.000000

  9 H s       :     0.000000  s :     0.000000
      pz      :     0.000000  p :     0.000000
      px      :     0.000000
      py      :     0.000000

 10 O s       :     0.000000  s :     0.000000
      pz      :     0.000000  p :     0.000000
      px      :     0.000000
      py      :     0.000000
      dz2     :     0.000000  d :     0.000000
      dxz     :     0.000000
      dyz     :     0.000000
      dx2y2   :     0.000000
      dxy     :     0.000000
      f0      :     0.000000  f :     0.000000
      f+1     :     0.000000
      f-1     :     0.000000
      f+2     :     0.000000
      f-2     :     0.000000
      f+3     :     0.000000
      f-3     :     0.000000

 11 H s       :     0.000000  s :     0.000000
      pz      :     0.000000  p :     0.000000
      px      :     0.000000
      py      :     0.000000

 12 Cls       :     0.000000  s :     0.000000
      pz      :     0.000000  p :     0.000000
      px      :     0.000000
      py      :     0.000000
      dz2     :     0.000000  d :     0.000000
      dxz     :     0.000000
      dyz     :     0.000000
      dx2y2   :     0.000000
      dxy     :     0.000000
      f0      :     0.000000  f :     0.000000
      f+1     :     0.000000
      f-1     :     0.000000
      f+2     :     0.000000
      f-2     :     0.000000
      f+3     :     0.000000
      f-3     :     0.000000



                      *****************************
                      * MAYER POPULATION ANALYSIS *
                      *****************************

  NA   - Mulliken gross atomic population
  ZA   - Total nuclear charge
  QA   - Mulliken gross atomic charge
  VA   - Mayer's total valence
  BVA  - Mayer's bonded valence
  FA   - Mayer's free valence

  ATOM       NA         ZA         QA         VA         BVA        FA
  0 C      6.1061     6.0000    -0.1061     3.9520     3.9520     0.0000
  1 C      6.1636     6.0000    -0.1636     3.9857     3.9857    -0.0000
  2 C      5.8735     6.0000     0.1265     3.7047     3.7047    -0.0000
  3 C      5.8736     6.0000     0.1264     4.0343     4.0343    -0.0000
  4 C      6.1632     6.0000    -0.1632     3.9472     3.9472    -0.0000
  5 C      6.0845     6.0000    -0.0845     3.9229     3.9229     0.0000
  6 H      0.8919     1.0000     0.1081     0.9652     0.9652     0.0000
  7 H      0.8843     1.0000     0.1157     0.9805     0.9805    -0.0000
  8 H      0.8909     1.0000     0.1091     0.9867     0.9867    -0.0000
  9 H      0.8920     1.0000     0.1080     0.9647     0.9647     0.0000
 10 O      8.3915     8.0000    -0.3915     2.0697     2.0697    -0.0000
 11 H      0.6858     1.0000     0.3142     0.9107     0.9107     0.0000
 12 Cl    17.0990    17.0000    -0.0990     1.2478     1.2478    -0.0000

  Mayer bond orders larger than 0.100000
B(  0-C ,  1-C ) :   1.4135 B(  0-C ,  5-C ) :   1.4133 B(  0-C ,  6-H ) :   0.9570 
B(  1-C ,  2-C ) :   1.3476 B(  1-C ,  7-H ) :   0.9541 B(  1-C , 12-Cl) :   0.1005 
B(  2-C ,  3-C ) :   1.2676 B(  2-C , 12-Cl) :   0.9934 B(  3-C ,  4-C ) :   1.4235 
B(  3-C , 10-O ) :   1.1414 B(  4-C ,  5-C ) :   1.3994 B(  4-C ,  8-H ) :   0.9603 
B(  5-C ,  9-H ) :   0.9580 B( 10-O , 11-H ) :   0.8853 

-------
TIMINGS
-------

Total SCF time: 0 days 0 hours 0 min 4 sec 

Total time                  ....       4.657 sec
Sum of individual times     ....       4.297 sec  ( 92.3%)

SCF preparation             ....       0.111 sec  (  2.4%)
Fock matrix formation       ....       2.711 sec  ( 58.2%)
  Startup                   ....       0.077 sec  (  2.8% of F)
  Split-RI-J                ....       0.566 sec  ( 20.9% of F)
  XC integration            ....       1.594 sec  ( 58.8% of F)
    Basis function eval.    ....       0.209 sec  ( 13.1% of XC)
    Density eval.           ....       0.322 sec  ( 20.2% of XC)
    XC-Functional eval.     ....       0.015 sec  (  0.9% of XC)
    XC-Potential eval.      ....       0.494 sec  ( 31.0% of XC)
Diagonalization             ....       0.000 sec  (  0.0%)
Density matrix formation    ....       0.350 sec  (  7.5%)
Total Energy calculation    ....       0.166 sec  (  3.6%)
Population analysis         ....       0.101 sec  (  2.2%)
Orbital Transformation      ....       0.077 sec  (  1.7%)
Orbital Orthonormalization  ....       0.000 sec  (  0.0%)
DIIS solution               ....       0.376 sec  (  8.1%)
SOSCF solution              ....       0.405 sec  (  8.7%)
Finished LeanSCF after   4.7 sec

Maximum memory used throughout the entire LEANSCF-calculation: 14.5 MB


           ************************************************************
           *        Program running with 16 parallel MPI-processes    *
           *              working on a common directory               *
           ************************************************************

------------------------------------------------------------------------------
                         ORCA PROPERTY INTEGRAL CALCULATIONS
------------------------------------------------------------------------------

GBWName                                   ... C:\orca_jobs\ex1\PBE.gbw
Number of atoms                           ...     13
Number of basis functions                 ...    284
Max core memory                           ...   1500 MB

Dipole integrals                          ... YES
Quadrupole integrals                      ...  NO
Linear momentum integrals                 ...  NO
Angular momentum integrals                ...  NO
Higher moments length integrals           ...  NO
Higher moments velocity integrals         ...  NO
Kinetic energy integrals                  ...  NO
GIAO right hand sides                     ...  NO
GIAO dipole derivative integrals          ...  NO
SOC integrals                             ...  NO
EPR diamagnetic integrals (GIAO)          ...  NO
EPR gauge integrals                       ...  NO
Field gradient integrals                  ...  NO (   0 nuclei)
Spin-dipole/Fermi contact integrals       ...  NO (   0 nuclei)
Contact density integrals                 ...  NO (   0 nuclei)
Nucleus-orbit integrals                   ...  NO (   0 nuclei)
Geometric perturbations                   ...  NO (  13 nuclei)

Choice of electric origin   ... Center of mass
Position of electric origin ... ( -0.0342,  0.5984,  1.3919) 
Choice of magnetic origin   ... GIAO
Position of magnetic origin ... (  0.0000,  0.0000,  0.0000) 

Calculating integrals                     ... Electric Dipole (Length)     done (  0.0 sec)

Property integrals calculated in   0.0 sec

Maximum memory used throughout the entire PROPINT-calculation: 15.4 MB

-------------------------   --------------------
FINAL SINGLE POINT ENERGY      -766.630071623096
-------------------------   --------------------



           ************************************************************
           *        Program running with 16 parallel MPI-processes    *
           *              working on a common directory               *
           ************************************************************
------------------------------------------------------------------------------
                         ORCA SCF GRADIENT CALCULATION
------------------------------------------------------------------------------

Nuc. rep. gradient        (SHARK) ... done (  0.0 sec)
HCore & Overlap gradient  (SHARK) ... done (  0.0 sec)
Split-RIJ-J gradient      (SHARK) ... done (  0.2 sec)
XC gradient                       ... done (  0.5 sec)

------------------
CARTESIAN GRADIENT
------------------

   1   C   :   -0.000471004    0.004729120    0.000383687
   2   C   :    0.000757129    0.007124596   -0.006539890
   3   C   :    0.001566286   -0.001361576   -0.010466715
   4   C   :   -0.006998699   -0.034280039    0.003276174
   5   C   :    0.000565064   -0.000234861    0.005772336
   6   C   :    0.000857728    0.003778753    0.005134926
   7   H   :    0.000117048   -0.005652745   -0.001050403
   8   H   :    0.000086723   -0.004460206    0.004320805
   9   H   :   -0.000000301    0.000210271   -0.006560988
  10   H   :    0.000065247   -0.003277937   -0.004458277
  11   O   :    0.016586259    0.029661148    0.002736487
  12   H   :   -0.012232598   -0.001498394   -0.001093548
  13   Cl  :   -0.000898884    0.005261869    0.008545407

Difference to translation invariance:
           :   -0.0000000000    0.0000000000    0.0000000000

Difference to rotation invariance:
           :    0.0000871732   -0.0000332203    0.0001566004

Norm of the Cartesian gradient     ...    0.0557040266
RMS gradient                       ...    0.0089197829
MAX gradient                       ...    0.0342800389

-------
TIMINGS
-------

Total SCF gradient time     ....        0.691 sec

One electron gradient       ....       0.031 sec  (  4.5%)
RI-J Coulomb gradient       ....       0.159 sec  ( 23.0%)
XC gradient                 ....       0.500 sec  ( 72.4%)

Maximum memory used throughout the entire SCFGRAD-calculation: 24.5 MB
------------------------------------------------------------------------------
                         ORCA GEOMETRY RELAXATION STEP
------------------------------------------------------------------------------

Reading the OPT-File                    .... done
Getting information on internals        .... done
Copying old internal coords+grads       .... done
Making the new internal coordinates     .... (2022 redundants) done
Validating the new internal coordinates .... (2022 redundants) done
Calculating the B-matrix                .... done
Calculating the G,G- and P matrices     .... done
Transforming gradient to internals      .... done
Projecting the internal gradient        .... done
[...]
     38       0.009360  -0.001197  -0.003548  -0.002511   0.003737  -0.002256
                 30         31         32         33         34         35    
      0      -0.005752   0.006308  -0.007090   0.008414   0.001847  -0.002372
      1      -0.025103   0.124323   0.018970   0.152298   0.038775  -0.051265
      2      -0.190921   0.014013  -0.335244   0.045715  -0.000639   0.003794
      3      -0.003783  -0.011371   0.005353  -0.016990  -0.000033   0.000129
      4      -0.109208  -0.179142   0.030725  -0.301521  -0.007564   0.023313
      5       0.062297  -0.116123   0.164247  -0.104951   0.013887  -0.041618
      6       0.006575   0.002987   0.000601   0.011544   0.000025  -0.000084
      7       0.131272  -0.008280   0.100784   0.275408   0.000368  -0.001309
      8       0.011481   0.144264  -0.179767  -0.071144   0.000314  -0.000879
      9      -0.007182   0.009338   0.009990  -0.013446  -0.000043  -0.000087
     10      -0.082117   0.228282   0.029283  -0.260777  -0.000713  -0.001556
     11      -0.134021  -0.071959   0.359610  -0.034682  -0.000365  -0.000535
     12      -0.002403  -0.007928  -0.006830   0.020392   0.000015  -0.000022
     13      -0.079915  -0.118077  -0.042847   0.367196  -0.014129  -0.019909
     14       0.060814  -0.092794  -0.199701   0.112755   0.028839   0.038849
     15       0.007176  -0.001300  -0.001379  -0.013405  -0.002975  -0.000930
     16       0.134625  -0.076658  -0.141612  -0.314372  -0.034166  -0.009419
     17       0.028941   0.099130   0.226468   0.071402  -0.055215  -0.019798
     18       0.016149   0.008879   0.011033   0.005714  -0.021984   0.028033
     19       0.006296   0.148012   0.052917   0.160575  -0.466817   0.597119
     20       0.661609   0.073426   0.355285  -0.083640   0.018183  -0.026890
     21       0.011774   0.029460  -0.004985   0.017775   0.000145  -0.000444
     22       0.139589   0.500699  -0.147542   0.274847   0.088162  -0.256817
     23       0.212080   0.228960   0.086710   0.194772  -0.171344   0.498614
     24       0.007392   0.028237   0.008659  -0.023168   0.000620   0.000863
     25       0.070900   0.477407   0.217684  -0.341139   0.183551   0.241873
     26       0.165682   0.217572  -0.078072  -0.279530  -0.340684  -0.447017
     27      -0.005798   0.015289   0.014524   0.003978   0.035092   0.011298
     28      -0.270746   0.414194   0.329733   0.219678   0.403231   0.128277
     29       0.301037  -0.192687  -0.052682  -0.272552   0.650795   0.212464
     30       0.001553  -0.003276  -0.000775   0.002004   0.000005   0.000013
     31       0.008409  -0.073064   0.011759   0.037587   0.000009   0.000225
     32       0.046895   0.010956  -0.054992   0.007116   0.000188   0.000089
     33       0.015744  -0.000366  -0.018229   0.002010  -0.000090   0.000035
     34       0.395417  -0.002074  -0.465779   0.058403  -0.000732   0.000920
     35      -0.133384  -0.012851   0.170907  -0.028530  -0.002231  -0.000335
     36      -0.000169  -0.000173  -0.000181   0.000099   0.000000   0.000004
     37      -0.003188  -0.000752  -0.003346   0.000153   0.000004   0.000049
     38      -0.000797  -0.005932  -0.000957   0.003668  -0.000019   0.000066
                 36         37         38    
      0      -0.000320   0.002733   0.000011
      1      -0.005296   0.057886   0.000275
      2      -0.002795  -0.001903  -0.000050
      3      -0.000045  -0.000045  -0.000022
      4      -0.020703   0.023666  -0.000295
      5       0.039830  -0.049634  -0.000307
      6       0.000110  -0.000149   0.000077
      7       0.002167  -0.002717   0.001410
      8       0.000237  -0.000753   0.000340
      9      -0.000158  -0.000059  -0.000210
     10      -0.002212  -0.001047  -0.002988
     11      -0.002180  -0.000401  -0.002777
     12      -0.000179  -0.000119   0.000069
     13      -0.031314  -0.012462   0.000965
     14       0.055125   0.019944   0.000907
     15       0.001939   0.001516  -0.000019
     16       0.023642   0.016733  -0.000308
     17       0.033251   0.029470  -0.000126
     18       0.002908  -0.030137  -0.000057
     19       0.060059  -0.640830  -0.001028
     20       0.000943   0.026792  -0.000204
     21       0.000334  -0.000247   0.000074
     22       0.234391  -0.277176   0.001589
     23      -0.458274   0.548131   0.000058
     24       0.001388   0.000578   0.000000
     25       0.344964   0.125721   0.000469
     26      -0.631118  -0.227082  -0.001046
     27      -0.020873  -0.016765   0.000051
     28      -0.241212  -0.191558   0.000503
     29      -0.384373  -0.313034   0.001146
     30       0.000020   0.000009  -0.002532
     31       0.000267   0.000143  -0.023929
     32       0.000307   0.000094  -0.056362
     33       0.000038   0.000007   0.041507
     34       0.001283   0.000357   0.397867
     35      -0.000958  -0.000381   0.914438
     36      -0.000004   0.000007  -0.000008
     37      -0.000056   0.000097  -0.000238
     38      -0.000065   0.000089   0.000119


-----------
IR SPECTRUM
-----------

 Mode   freq       eps      Int      T**2         TX        TY        TZ
       cm**-1   L/(mol*cm) km/mol    a.u.
----------------------------------------------------------------------------
  6:    154.50   0.000000    0.00  0.000000  ( 0.000196 -0.000039 -0.000052)
  7:    245.59   0.000616    3.11  0.000782  ( 0.001187  0.024322 -0.013765)
  8:    255.63   0.000301    1.52  0.000368  (-0.019137  0.001235  0.000341)
  9:    365.97   0.000406    2.05  0.000346  (-0.000212 -0.010002  0.015679)
 10:    429.76   0.002331   11.78  0.001692  ( 0.041076 -0.002031 -0.000983)
 11:    477.13   0.013984   70.67  0.009146  (-0.095527  0.003950  0.002232)
 12:    484.63   0.002082   10.52  0.001341  (-0.000214 -0.036442 -0.003597)
 13:    532.58   0.000086    0.44  0.000050  (-0.007097  0.000297  0.000117)
 14:    546.29   0.000644    3.25  0.000368  (-0.000927 -0.016454 -0.009809)
 15:    669.86   0.004224   21.35  0.001968  ( 0.002215  0.029915  0.032680)
 16:    688.21   0.000004    0.02  0.000002  (-0.001292  0.000186  0.000140)
 17:    727.14   0.012856   64.97  0.005517  (-0.074170  0.003592  0.001794)
 18:    823.90   0.002041   10.31  0.000773  (-0.000764 -0.025225  0.011670)
 19:    824.37   0.000207    1.05  0.000078  (-0.008836 -0.000146  0.000503)
 20:    887.56   0.000588    2.97  0.000207  ( 0.014355 -0.000709 -0.000307)
 21:    907.65   0.000029    0.14  0.000010  (-0.003136  0.000121  0.000084)
 22:   1020.83   0.008181   41.34  0.002501  (-0.002602 -0.039193 -0.030951)
 23:   1033.35   0.001547    7.82  0.000467  ( 0.000594  0.001925  0.021517)
 24:   1111.75   0.001016    5.14  0.000285  (-0.000890 -0.014211 -0.009085)
 25:   1143.26   0.000116    0.58  0.000032  ( 0.000137  0.000150  0.005615)
 26:   1186.03   0.019540   98.75  0.005141  (-0.002200 -0.062761  0.034605)
 27:   1248.79   0.017989   90.91  0.004495  ( 0.002854  0.065691 -0.013111)
 28:   1303.76   0.002632   13.30  0.000630  (-0.001096 -0.011852 -0.022099)
 29:   1364.81   0.004699   23.75  0.001074  (-0.001552 -0.032723  0.001124)
 30:   1451.21   0.000984    4.97  0.000212  ( 0.000747  0.010378  0.010162)
 31:   1468.41   0.024575  124.19  0.005223  ( 0.003656  0.071679  0.008453)
 32:   1583.42   0.002410   12.18  0.000475  (-0.000994 -0.021684  0.001928)
 33:   1593.08   0.006722   33.97  0.001317  (-0.001484 -0.035101  0.009087)
 34:   3109.65   0.000354    1.79  0.000035  (-0.000252 -0.002552 -0.005376)
 35:   3121.75   0.000951    4.81  0.000095  (-0.000497 -0.009422 -0.002460)
 36:   3128.78   0.001055    5.33  0.000105  ( 0.000132 -0.002168  0.010023)
 37:   3136.92   0.000944    4.77  0.000094  ( 0.000490  0.009364  0.002457)
 38:   3566.76   0.015299   77.31  0.001339  ( 0.001637  0.018170  0.031713)

* The epsilon (eps) is given for a Dirac delta lineshape.
** The dipole moment derivative (T) already includes vibrational overlap.

The first frequency considered to be a vibration is 6
The total number of vibrations considered is 33


--------------------------
THERMOCHEMISTRY AT 298.15K
--------------------------

Temperature         ...   298.15 K
Pressure            ...     1.00 atm
Total Mass          ...   128.56 AMU
Quasi RRHO          ...     True
Cut-Off Frequency   ...     1.00 cm^-1

Throughout the following assumptions are being made:
  (1) The electronic state is orbitally nondegenerate
  (2) There are no thermally accessible electronically excited states
  (3) Hindered rotations indicated by low frequency modes are not
      treated as such but are treated as vibrations and this may
      cause some error
  (4) All equations used are the standard statistical mechanics
      equations for an ideal gas
  (5) All vibrations are strictly harmonic

freq.     154.50  E(vib)   ...       0.40 
freq.     245.59  E(vib)   ...       0.31 
freq.     255.63  E(vib)   ...       0.30 
freq.     365.97  E(vib)   ...       0.22 
freq.     429.76  E(vib)   ...       0.18 
freq.     477.13  E(vib)   ...       0.15 
freq.     484.63  E(vib)   ...       0.15 
freq.     532.58  E(vib)   ...       0.13 
freq.     546.29  E(vib)   ...       0.12 
freq.     669.86  E(vib)   ...       0.08 
freq.     688.21  E(vib)   ...       0.07 
freq.     727.14  E(vib)   ...       0.06 
freq.     823.90  E(vib)   ...       0.05 
freq.     824.37  E(vib)   ...       0.04 
freq.     887.56  E(vib)   ...       0.04 
freq.     907.65  E(vib)   ...       0.03 
freq.    1020.83  E(vib)   ...       0.02 
freq.    1033.35  E(vib)   ...       0.02 
freq.    1111.75  E(vib)   ...       0.01 
freq.    1143.26  E(vib)   ...       0.01 
freq.    1186.03  E(vib)   ...       0.01 
freq.    1248.79  E(vib)   ...       0.01 
freq.    1303.76  E(vib)   ...       0.01 
freq.    1364.81  E(vib)   ...       0.01 
freq.    1451.21  E(vib)   ...       0.00 
freq.    1468.41  E(vib)   ...       0.00 
freq.    1583.42  E(vib)   ...       0.00 
freq.    1593.08  E(vib)   ...       0.00 
freq.    3109.65  E(vib)   ...       0.00 
freq.    3121.75  E(vib)   ...       0.00 
freq.    3128.78  E(vib)   ...       0.00 
freq.    3136.92  E(vib)   ...       0.00 
freq.    3566.76  E(vib)   ...       0.00 

------------
INNER ENERGY
------------

The inner energy is: U= E(el) + E(ZPE) + E(vib) + E(rot) + E(trans)
    E(el)   - is the total energy from the electronic structure calculation
              = E(kin-el) + E(nuc-el) + E(el-el) + E(nuc-nuc)
    E(ZPE)  - the the zero temperature vibrational energy from the frequency calculation
    E(vib)  - the the finite temperature correction to E(ZPE) due to population
              of excited vibrational states
    E(rot)  - is the rotational thermal energy
    E(trans)- is the translational thermal energy

Summary of contributions to the inner energy U:
Electronic energy                ...   -766.64437032 Eh
Zero point energy                ...      0.09247843 Eh      58.03 kcal/mol
Thermal vibrational correction   ...      0.00388133 Eh       2.44 kcal/mol
Thermal rotational correction    ...      0.00141627 Eh       0.89 kcal/mol
Thermal translational correction ...      0.00141627 Eh       0.89 kcal/mol
-----------------------------------------------------------------------
Total thermal energy                   -766.54517802 Eh


Summary of corrections to the electronic energy:
(perhaps to be used in another calculation)
Total thermal correction                  0.00671387 Eh       4.21 kcal/mol
Non-thermal (ZPE) correction              0.09247843 Eh      58.03 kcal/mol
-----------------------------------------------------------------------
Total correction                          0.09919230 Eh      62.24 kcal/mol


--------
ENTHALPY
--------

The enthalpy is H = U + kB*T
                kB is Boltzmann's constant
Total thermal energy              ...   -766.54517802 Eh 
Thermal Enthalpy correction       ...      0.00094421 Eh       0.59 kcal/mol
-----------------------------------------------------------------------
Total Enthalpy                    ...   -766.54423382 Eh


Note: Only C1 symmetry has been detected, increase convergence thresholds 
      if your molecule has a higher symmetry. Symmetry factor of 1.0 is   
      used for the rotational entropy correction. 
 

Note: Rotational entropy computed according to Herzberg 
Infrared and Raman Spectra, Chapter V,1, Van Nostrand Reinhold, 1945 
Point Group:  C1, Symmetry Number:   1  
Rotational constants in cm-1:     0.099443     0.050921     0.033677 

Vibrational entropy computed according to the QRRHO of S. Grimme
Chem.Eur.J. 2012 18 9955 using a reference frequency of 100.0 cm-1


-------
ENTROPY
-------

The entropy contributions are T*S = T*(S(el)+S(vib)+S(rot)+S(trans))
     S(el)   - electronic entropy
     S(vib)  - vibrational entropy
     S(rot)  - rotational entropy
     S(trans)- translational entropy
The entropies will be listed as multiplied by the temperature to get
units of energy

Electronic entropy                ...      0.00000000 Eh      0.00 kcal/mol
Vibrational entropy               ...      0.00599321 Eh      3.76 kcal/mol
Rotational entropy                ...      0.01360694 Eh      8.54 kcal/mol
Translational entropy             ...      0.01922702 Eh     12.07 kcal/mol
-----------------------------------------------------------------------
Final entropy term                ...      0.03882718 Eh     24.36 kcal/mol

In case the symmetry of your molecule has not been determined correctly
or in case you have a reason to use a different symmetry number we print 
out the resulting rotational entropy values for sn=1,12:

 non-linear molecules -----------------------------------
|  sn= 1 | S(rot)=       0.01360694 Eh      8.54 kcal/mol|
|  sn= 2 | S(rot)=       0.01295249 Eh      8.13 kcal/mol|
|  sn= 3 | S(rot)=       0.01256965 Eh      7.89 kcal/mol|
|  sn= 4 | S(rot)=       0.01229803 Eh      7.72 kcal/mol|
|  sn= 5 | S(rot)=       0.01208734 Eh      7.58 kcal/mol|
|  sn= 6 | S(rot)=       0.01191520 Eh      7.48 kcal/mol|
|  sn= 7 | S(rot)=       0.01176965 Eh      7.39 kcal/mol|
|  sn= 8 | S(rot)=       0.01164357 Eh      7.31 kcal/mol|
|  sn= 9 | S(rot)=       0.01153237 Eh      7.24 kcal/mol|
|  sn=10 | S(rot)=       0.01143289 Eh      7.17 kcal/mol|
|  sn=11 | S(rot)=       0.01134290 Eh      7.12 kcal/mol|
|  sn=12 | S(rot)=       0.01126074 Eh      7.07 kcal/mol|
 linear molecules ---------------------------------------
|  Dinfh | S(rot)=       0.00852747 Eh      5.35 kcal/mol|
|  Cinfv | S(rot)=       0.00918193 Eh      5.76 kcal/mol|
 --------------------------------------------------------


-------------------
GIBBS FREE ENERGY
-------------------

The Gibbs free energy is G = H - T*S

Total enthalpy                    ...   -766.54423382 Eh 
Total entropy correction          ...     -0.03882718 Eh    -24.36 kcal/mol
-----------------------------------------------------------------------
Final Gibbs free energy         ...   -766.58306100 Eh

For completeness - the Gibbs free energy minus the electronic energy
G-E(el)                           ...      0.06130932 Eh     38.47 kcal/mol


Maximum memory used throughout the entire PROP-calculation: 44.9 MB

--------------------------------
SUGGESTED CITATIONS FOR THIS RUN
--------------------------------

Below you find a list of papers that are relevant to this ORCA run
We neither can nor want to force you to cite these papers, but we appreciate if you do
You receive ORCA, which is the product of decades of hard work by many enthusiastic individuals, for free
The only thing we kindly ask in return is that you cite our papers,
We deeply appreciate it, if you show your appreciation for ORCA by not just citing the generic ORCA reference.

Please note that relegating all ORCA citations to the supporting information does *not* help us.
SI sections are not indexed - citations you put there will not count into any citation statistics
But we need these citations in order to attract the funding resources that allow us to do what we are doing

Therefore, if you are a happy ORCA user, please consider citing a few of the papers listed below in the main body of your paper

In addition to the list printed below, the program has created the file C:\orca_jobs\ex1\PBE.bibtex that contains the list in bibtex format
You can import this file easily into all common literature databanks and citation aid programs


List of essential papers. We consider these as the minimum necessary citations

  1. Neese, F.
     Software update: the ORCA program system, version 6.0
     WIRES Comput. Molec. Sci. 2025 15(1), e70019
     doi.org/10.1002/wcms.7019

List of papers to cite with high priority. The work reported in these papers was absolutely
necessary for this run to complete.
Our perspective: the developers of density functionals and basis sets usually get cited in chemistry papers
Good! But without the algorithms to do something with them, the functionals or basis sets would not do anything.
Hence, in our opinion, the algorithm design and method developments papers are equally worthy of getting cited

  1. Neese, F.
     An improvement of the resolution of the identity approximation for the formation of the Coulomb matrix
     J. Comp. Chem. 2003 24(14), 1740-1747
     doi.org/10.1002/jcc.10318
  2. Bykov, D.; Petrenko, T.; Izsak, R.; Kossmann, S.; Becker, U.; Valeev, E.; Neese, F.
     Efficient implementation of the analytic second derivatives of Hartree-Fock and hybrid DFT energies: a detailed analysis of different approximations
     Molec. Phys. 2015 113 , 1961-1977
     doi.org/10.1080/00268976.2015.1025114
  3. Neese, F.
     The SHARK Integral Generation and Digestion System
     J. Comp. Chem. 2022 44(3), 381
     doi.org/10.1002/jcc.26942

List of suggested additional citations. These are papers that are important in the 'surrounding' of 
of this run, or papers that preceded the highly important papers. If you like your results we are grateful for a citation.

  1. Neese, F.
     The ORCA program system
     WIRES Comput. Molec. Sci. 2012 2(1), 73-78
     doi.org/10.1002/wcms.81
  2. Neese, F.
     Software update: the ORCA program system, version 4.0
     WIRES Comput. Molec. Sci. 2018 8(1), 1-6
     doi.org/10.1002/wcms.1327
  3. Neese, F.; Wennmohs, F.; Becker, U.; Riplinger, C.
     The ORCA quantum chemistry program package
     J. Chem. Phys. 2020 152(22), 224108
     doi.org/10.1063/5.0004608
  4. Neese, F.
     Software update: The ORCA program system—Version 5.0
     WIRES Comput. Molec. Sci. 2022 12(1), e1606
     doi.org/10.1002/wcms.1606

List of optional additional citations

  1. Neese, F.
     Approximate second-order SCF convergence for spin unrestricted wavefunctions
     Chem. Phys. Lett. 2000 325(1-3), 93-98
     doi.org/10.1016/s0009-2614(00)00662-x

Timings for individual modules:

Sum of individual times          ...      122.078 sec (=   2.035 min)
Startup calculation              ...        7.656 sec (=   0.128 min)   6.3 %
SCF iterations                   ...       57.732 sec (=   0.962 min)  47.3 %
Property integrals               ...       16.836 sec (=   0.281 min)  13.8 %
SCF Response                     ...       20.252 sec (=   0.338 min)  16.6 %
Property calculations            ...        6.431 sec (=   0.107 min)   5.3 %
SCF Gradient evaluation          ...       13.057 sec (=   0.218 min)  10.7 %
Geometry relaxation              ...        0.114 sec (=   0.002 min)   0.1 %
                             ****ORCA TERMINATED NORMALLY****
TOTAL RUN TIME: 0 days 0 hours 2 minutes 5 seconds 52 msec
