 Entering Link 1 = C:\G16W\l1.exe PID=     33120.
  
 Copyright (c) 1988-2017, Gaussian, Inc.  All Rights Reserved.
  
 This is part of the Gaussian(R) 16 program.  It is based on
 the Gaussian(R) 09 system (copyright 2009, Gaussian, Inc.),
 the Gaussian(R) 03 system (copyright 2003, Gaussian, Inc.),
 the Gaussian(R) 98 system (copyright 1998, Gaussian, Inc.),
 the Gaussian(R) 94 system (copyright 1995, Gaussian, Inc.),
 the Gaussian 92(TM) system (copyright 1992, Gaussian, Inc.),
 the Gaussian 90(TM) system (copyright 1990, Gaussian, Inc.),
 the Gaussian 88(TM) system (copyright 1988, Gaussian, Inc.),
 the Gaussian 86(TM) system (copyright 1986, Carnegie Mellon
 University), and the Gaussian 82(TM) system (copyright 1983,
 Carnegie Mellon University). Gaussian is a federally registered
 trademark of Gaussian, Inc.
  
 This software contains proprietary and confidential information,
 including trade secrets, belonging to Gaussian, Inc.
  
 This software is provided under written license and may be
 used, copied, transmitted, or stored only in accord with that
 written license.
  
 The following legend is applicable only to US Government
 contracts under FAR:
  
                    RESTRICTED RIGHTS LEGEND
  
 Use, reproduction and disclosure by the US Government is
 subject to restrictions as set forth in subparagraphs (a)
 and (c) of the Commercial Computer Software - Restricted
 Rights clause in FAR 52.227-19.
  
 Gaussian, Inc.
 340 Quinnipiac St., Bldg. 40, Wallingford CT 06492
  
  
 ---------------------------------------------------------------
 Warning -- This program may not be used in any manner that
 competes with the business of Gaussian, Inc. or will provide
 assistance to any competitor of Gaussian, Inc.  The licensee
 of this program is prohibited from giving any competitor of
 Gaussian, Inc. access to this program.  By using this program,
 the user acknowledges that Gaussian, Inc. is engaged in the
 business of creating and licensing software in the field of
 computational chemistry and represents and warrants to the
 licensee that it is not a competitor of Gaussian, Inc. and that
 it will not use this program in any manner prohibited above.
 ---------------------------------------------------------------
  

 Cite this work as:
 Gaussian 16, Revision B.01,
 M. J. Frisch, G. W. Trucks, H. B. Schlegel, G. E. Scuseria, 
 M. A. Robb, J. R. Cheeseman, G. Scalmani, V. Barone, 
 G. A. Petersson, H. Nakatsuji, X. Li, M. Caricato, A. V. Marenich, 
 J. Bloino, B. G. Janesko, R. Gomperts, B. Mennucci, H. P. Hratchian, 
 J. V. Ortiz, A. F. Izmaylov, J. L. Sonnenberg, D. Williams-Young, 
 F. Ding, F. Lipparini, F. Egidi, J. Goings, B. Peng, A. Petrone, 
 T. Henderson, D. Ranasinghe, V. G. Zakrzewski, J. Gao, N. Rega, 
 G. Zheng, W. Liang, M. Hada, M. Ehara, K. Toyota, R. Fukuda, 
 J. Hasegawa, M. Ishida, T. Nakajima, Y. Honda, O. Kitao, H. Nakai, 
 T. Vreven, K. Throssell, J. A. Montgomery, Jr., J. E. Peralta, 
 F. Ogliaro, M. J. Bearpark, J. J. Heyd, E. N. Brothers, K. N. Kudin, 
 V. N. Staroverov, T. A. Keith, R. Kobayashi, J. Normand, 
 K. Raghavachari, A. P. Rendell, J. C. Burant, S. S. Iyengar, 
 J. Tomasi, M. Cossi, J. M. Millam, M. Klene, C. Adamo, R. Cammi, 
 J. W. Ochterski, R. L. Martin, K. Morokuma, O. Farkas, 
 J. B. Foresman, and D. J. Fox, Gaussian, Inc., Wallingford CT, 2016.
 
 ******************************************
 Gaussian 16:  EM64W-G16RevB.01 16-Dec-2017
                07-Sep-2025 
 ******************************************
 %chk=HF_UCCSDT_pVTZ_smallscan.chk
 %mem=16GB
 %NProcShared=20
 Will use up to   20 processors via shared memory.
 -----------------------------------------------------------------
 #p CCSD(T)/ cc-pVTZ scf=(tight,xqc,maxcycle=512) guess=mix nosymm
 -----------------------------------------------------------------
 1/38=1,172=1/1;
 2/12=2,15=1,17=6,18=5,40=1/2;
 3/5=16,6=1,11=9,25=1,30=1/1,2,3;
 4/13=-1/1;
 5/5=2,7=512,8=3,13=1,32=2,38=5/2,8;
 8/6=4,9=120000,10=1/1,4;
 9/5=7,14=2/13;
 6/7=2,8=2,9=2,10=2/1;
 99/5=1,9=1/99;
 Leave Link    1 at Sun Sep 07 22:45:37 2025, MaxMem=  2147483648 cpu:               0.0 elap:               0.3
 (Enter C:\G16W\l101.exe)
 ---------------------------------------
 HF PES scan — UCCSDT/ cc-pVTZ R: 0.93
 ---------------------------------------
 Symbolic Z-matrix:
 Charge =  0 Multiplicity = 1
 H
 F                    1    R
       Variables:
  R                     0.93                     
 
 ITRead=  0  0
 MicOpt= -1 -1
 NAtoms=      2 NQM=        2 NQMF=       0 NMMI=      0 NMMIF=      0
                NMic=       0 NMicF=      0.
                    Isotopes and Nuclear Properties:
 (Nuclear quadrupole moments (NQMom) in fm**2, nuclear magnetic moments (NMagM)
  in nuclear magnetons)

  Atom         1           2
 IAtWgt=           1          19
 AtmWgt=   1.0078250  18.9984033
 NucSpn=           1           1
 AtZEff=   0.0000000   0.0000000
 NQMom=    0.0000000   0.0000000
 NMagM=    2.7928460   2.6288670
 AtZNuc=   1.0000000   9.0000000
 Leave Link  101 at Sun Sep 07 22:45:38 2025, MaxMem=  2147483648 cpu:               1.0 elap:               0.4
 (Enter C:\G16W\l202.exe)
                          Input orientation:                          
 ---------------------------------------------------------------------
 Center     Atomic      Atomic             Coordinates (Angstroms)
 Number     Number       Type             X           Y           Z
 ---------------------------------------------------------------------
      1          1           0        0.000000    0.000000    0.000000
      2          9           0        0.000000    0.000000    0.930000
 ---------------------------------------------------------------------
 Symmetry turned off by external request.
 Stoichiometry    FH
 Framework group  C*V[C*(HF)]
 Deg. of freedom     1
 Full point group                 C*V     NOp   4
 Rotational constants (GHZ):           0.0000000         610.5402188         610.5402188
 Leave Link  202 at Sun Sep 07 22:45:38 2025, MaxMem=  2147483648 cpu:               0.0 elap:               0.3
 (Enter C:\G16W\l301.exe)
 Standard basis: CC-pVTZ (5D, 7F)
 Ernie: Thresh=  0.10000D-02 Tol=  0.10000D-05 Strict=F.
 Ernie:  3 primitive shells out of 34 were deleted.
    44 basis functions,    69 primitive gaussians,    50 cartesian basis functions
     5 alpha electrons        5 beta electrons
       nuclear repulsion energy         5.1210697831 Hartrees.
 IExCor=    0 DFT=F Ex=HF Corr=None ExCW=0 ScaHFX=  1.000000
 ScaDFX=  1.000000  1.000000  1.000000  1.000000 ScalE2=  1.000000  1.000000
 IRadAn=      5 IRanWt=     -1 IRanGd=            0 ICorTp=0 IEmpDi=  4
 NAtoms=    2 NActive=    2 NUniq=    2 SFac= 1.00D+00 NAtFMM=   60 NAOKFM=F Big=F
 Integral buffers will be    131072 words long.
 Raffenetti 1 integral format.
 Two-electron integral symmetry is turned off.
 Leave Link  301 at Sun Sep 07 22:45:39 2025, MaxMem=  2147483648 cpu:               1.0 elap:               0.3
 (Enter C:\G16W\l302.exe)
 NPDir=0 NMtPBC=     1 NCelOv=     1 NCel=       1 NClECP=     1 NCelD=      1
         NCelK=      1 NCelE2=     1 NClLst=     1 CellRange=     0.0.
 One-electron integrals computed using PRISM.
 NBasis=    44 RedAO= T EigKep=  3.99D-03  NBF=    44
 NBsUse=    44 1.00D-06 EigRej= -1.00D+00 NBFU=    44
 Leave Link  302 at Sun Sep 07 22:45:39 2025, MaxMem=  2147483648 cpu:               0.0 elap:               0.4
 (Enter C:\G16W\l303.exe)
 DipDrv:  MaxL=1.
 Leave Link  303 at Sun Sep 07 22:45:39 2025, MaxMem=  2147483648 cpu:               0.0 elap:               0.3
 (Enter C:\G16W\l401.exe)
 ExpMin= 1.03D-01 ExpMax= 1.95D+04 ExpMxC= 6.65D+02 IAcc=3 IRadAn=         5 AccDes= 0.00D+00
 Harris functional with IExCor=  205 and IRadAn=       5 diagonalized for initial guess.
 HarFok:  IExCor=  205 AccDes= 0.00D+00 IRadAn=         5 IDoV= 1 UseB2=F ITyADJ=14
 ICtDFT=  3500011 ScaDFX=  1.000000  1.000000  1.000000  1.000000
 FoFCou: FMM=F IPFlag=           0 FMFlag=      100000 FMFlg1=           0
         NFxFlg=           0 DoJE=T BraDBF=F KetDBF=T FulRan=T
         wScrn=  0.000000 ICntrl=       500 IOpCl=  0 I1Cent=   200000004 NGrid=           0
         NMat0=    1 NMatS0=      1 NMatT0=    0 NMatD0=    1 NMtDS0=    0 NMtDT0=    0
 Symmetry not used in FoFCou.
 Harris En= -100.055836951842    
 JPrj=0 DoOrth=F DoCkMO=T.
 Mixing orbitals, IMix= 1 IMixAn=  0 NRI=1 NE=    5 Coef=  7.07106781D-01  7.07106781D-01
 Leave Link  401 at Sun Sep 07 22:45:40 2025, MaxMem=  2147483648 cpu:               1.0 elap:               0.6
 (Enter C:\G16W\l502.exe)
 Keep R1 ints in memory in canonical form, NReq=10216316.
 FoFCou: FMM=F IPFlag=           0 FMFlag=           0 FMFlg1=           0
         NFxFlg=           0 DoJE=F BraDBF=F KetDBF=F FulRan=T
         wScrn=  0.000000 ICntrl=       600 IOpCl=  0 I1Cent=           0 NGrid=           0
         NMat0=    1 NMatS0=    990 NMatT0=    0 NMatD0=    1 NMtDS0=    0 NMtDT0=    0
 Symmetry not used in FoFCou.
 Two-electron integral symmetry not used.
 Closed shell SCF:
 Using DIIS extrapolation, IDIIS=  1040.
 NGot=  2147483648 LenX=  2146986637 LenY=  2146983696
 Requested convergence on RMS density matrix=1.00D-08 within 128 cycles.
 Requested convergence on MAX density matrix=1.00D-06.
 Requested convergence on             energy=1.00D-06.
 No special actions if energy rises.

 Cycle   1  Pass 1  IDiag  1:
 E= -99.5417493686920    
 DIIS: error= 7.22D-02 at cycle   1 NSaved=   1.
 NSaved= 1 IEnMin= 1 EnMin= -99.5417493686920     IErMin= 1 ErrMin= 7.22D-02
 ErrMax= 7.22D-02  0.00D+00 EMaxC= 1.00D-01 BMatC= 2.00D-01 BMatP= 2.00D-01
 IDIUse=3 WtCom= 2.78D-01 WtEn= 7.22D-01
 Coeff-Com:  0.100D+01
 Coeff-En:   0.100D+01
 Coeff:      0.100D+01
 Gap=     0.351 Goal=   None    Shift=    0.000
 GapD=    0.351 DampG=1.000 DampE=0.500 DampFc=0.5000 IDamp=-1.
 Damping current iteration by 5.00D-01
 RMSDP=2.14D-02 MaxDP=5.51D-01              OVMax= 5.05D-01

 Cycle   2  Pass 1  IDiag  1:
 E= -99.7307869092343     Delta-E=       -0.189037540542 Rises=F Damp=T
 DIIS: error= 4.80D-02 at cycle   2 NSaved=   2.
 NSaved= 2 IEnMin= 2 EnMin= -99.7307869092343     IErMin= 2 ErrMin= 4.80D-02
 ErrMax= 4.80D-02  0.00D+00 EMaxC= 1.00D-01 BMatC= 6.45D-02 BMatP= 2.00D-01
 IDIUse=3 WtCom= 5.20D-01 WtEn= 4.80D-01
 Coeff-Com: -0.141D+00 0.114D+01
 Coeff-En:   0.000D+00 0.100D+01
 Coeff:     -0.732D-01 0.107D+01
 Gap=     0.635 Goal=   None    Shift=    0.000
 RMSDP=1.20D-02 MaxDP=2.97D-01 DE=-1.89D-01 OVMax= 7.06D-02

 Cycle   3  Pass 1  IDiag  1:
 E= -100.012106147055     Delta-E=       -0.281319237820 Rises=F Damp=F
 DIIS: error= 2.63D-02 at cycle   3 NSaved=   3.
 NSaved= 3 IEnMin= 3 EnMin= -100.012106147055     IErMin= 3 ErrMin= 2.63D-02
 ErrMax= 2.63D-02  0.00D+00 EMaxC= 1.00D-01 BMatC= 1.54D-02 BMatP= 6.45D-02
 IDIUse=3 WtCom= 7.37D-01 WtEn= 2.63D-01
 Coeff-Com:  0.158D+00-0.446D+00 0.129D+01
 Coeff-En:   0.000D+00 0.000D+00 0.100D+01
 Coeff:      0.116D+00-0.328D+00 0.121D+01
 Gap=     0.725 Goal=   None    Shift=    0.000
 RMSDP=3.76D-03 MaxDP=4.73D-02 DE=-2.81D-01 OVMax= 1.14D-01

 Cycle   4  Pass 1  IDiag  1:
 E= -100.049551243694     Delta-E=       -0.037445096639 Rises=F Damp=F
 DIIS: error= 1.25D-02 at cycle   4 NSaved=   4.
 NSaved= 4 IEnMin= 4 EnMin= -100.049551243694     IErMin= 4 ErrMin= 1.25D-02
 ErrMax= 1.25D-02  0.00D+00 EMaxC= 1.00D-01 BMatC= 2.80D-03 BMatP= 1.54D-02
 IDIUse=3 WtCom= 8.75D-01 WtEn= 1.25D-01
 Coeff-Com: -0.179D+00 0.364D+00-0.565D+00 0.138D+01
 Coeff-En:   0.000D+00 0.000D+00 0.000D+00 0.100D+01
 Coeff:     -0.157D+00 0.318D+00-0.494D+00 0.133D+01
 Gap=     0.778 Goal=   None    Shift=    0.000
 RMSDP=1.63D-03 MaxDP=1.96D-02 DE=-3.74D-02 OVMax= 5.87D-02

 Cycle   5  Pass 1  IDiag  1:
 E= -100.056372118797     Delta-E=       -0.006820875103 Rises=F Damp=F
 DIIS: error= 4.44D-03 at cycle   5 NSaved=   5.
 NSaved= 5 IEnMin= 5 EnMin= -100.056372118797     IErMin= 5 ErrMin= 4.44D-03
 ErrMax= 4.44D-03  0.00D+00 EMaxC= 1.00D-01 BMatC= 3.08D-04 BMatP= 2.80D-03
 IDIUse=3 WtCom= 9.56D-01 WtEn= 4.44D-02
 Coeff-Com:  0.449D-01-0.100D+00 0.160D-01-0.314D+00 0.135D+01
 Coeff-En:   0.000D+00 0.000D+00 0.000D+00 0.000D+00 0.100D+01
 Coeff:      0.429D-01-0.960D-01 0.153D-01-0.300D+00 0.134D+01
 Gap=     0.786 Goal=   None    Shift=    0.000
 RMSDP=7.16D-04 MaxDP=7.67D-03 DE=-6.82D-03 OVMax= 2.68D-02

 Cycle   6  Pass 1  IDiag  1:
 E= -100.057200221254     Delta-E=       -0.000828102457 Rises=F Damp=F
 DIIS: error= 7.23D-04 at cycle   6 NSaved=   6.
 NSaved= 6 IEnMin= 6 EnMin= -100.057200221254     IErMin= 6 ErrMin= 7.23D-04
 ErrMax= 7.23D-04  0.00D+00 EMaxC= 1.00D-01 BMatC= 2.16D-05 BMatP= 3.08D-04
 IDIUse=3 WtCom= 9.93D-01 WtEn= 7.23D-03
 Coeff-Com: -0.251D-02 0.223D-02 0.556D-01-0.520D-01-0.215D+00 0.121D+01
 Coeff-En:   0.000D+00 0.000D+00 0.000D+00 0.000D+00 0.000D+00 0.100D+01
 Coeff:     -0.249D-02 0.222D-02 0.552D-01-0.516D-01-0.214D+00 0.121D+01
 Gap=     0.783 Goal=   None    Shift=    0.000
 RMSDP=8.45D-05 MaxDP=8.71D-04 DE=-8.28D-04 OVMax= 1.87D-03

 Cycle   7  Pass 1  IDiag  1:
 E= -100.057223761944     Delta-E=       -0.000023540690 Rises=F Damp=F
 DIIS: error= 1.31D-04 at cycle   7 NSaved=   7.
 NSaved= 7 IEnMin= 7 EnMin= -100.057223761944     IErMin= 7 ErrMin= 1.31D-04
 ErrMax= 1.31D-04  0.00D+00 EMaxC= 1.00D-01 BMatC= 6.55D-07 BMatP= 2.16D-05
 IDIUse=3 WtCom= 9.99D-01 WtEn= 1.31D-03
 Coeff-Com: -0.156D-02 0.423D-02-0.185D-01 0.313D-01-0.116D-01-0.247D+00
 Coeff-Com:  0.124D+01
 Coeff-En:   0.000D+00 0.000D+00 0.000D+00 0.000D+00 0.000D+00 0.000D+00
 Coeff-En:   0.100D+01
 Coeff:     -0.156D-02 0.422D-02-0.185D-01 0.312D-01-0.116D-01-0.247D+00
 Coeff:      0.124D+01
 Gap=     0.783 Goal=   None    Shift=    0.000
 RMSDP=2.02D-05 MaxDP=2.13D-04 DE=-2.35D-05 OVMax= 7.49D-04

 Cycle   8  Pass 1  IDiag  1:
 E= -100.057224880881     Delta-E=       -0.000001118937 Rises=F Damp=F
 DIIS: error= 2.92D-05 at cycle   8 NSaved=   8.
 NSaved= 8 IEnMin= 8 EnMin= -100.057224880881     IErMin= 8 ErrMin= 2.92D-05
 ErrMax= 2.92D-05  0.00D+00 EMaxC= 1.00D-01 BMatC= 2.08D-08 BMatP= 6.55D-07
 IDIUse=1 WtCom= 1.00D+00 WtEn= 0.00D+00
 Coeff-Com: -0.151D-03 0.315D-03-0.846D-03 0.126D-02 0.137D-02-0.332D-01
 Coeff-Com: -0.173D-01 0.105D+01
 Coeff:     -0.151D-03 0.315D-03-0.846D-03 0.126D-02 0.137D-02-0.332D-01
 Coeff:     -0.173D-01 0.105D+01
 Gap=     0.783 Goal=   None    Shift=    0.000
 RMSDP=2.74D-06 MaxDP=2.44D-05 DE=-1.12D-06 OVMax= 7.67D-05

 Cycle   9  Pass 1  IDiag  1:
 E= -100.057224911557     Delta-E=       -0.000000030676 Rises=F Damp=F
 DIIS: error= 7.14D-06 at cycle   9 NSaved=   9.
 NSaved= 9 IEnMin= 9 EnMin= -100.057224911557     IErMin= 9 ErrMin= 7.14D-06
 ErrMax= 7.14D-06  0.00D+00 EMaxC= 1.00D-01 BMatC= 7.63D-10 BMatP= 2.08D-08
 IDIUse=1 WtCom= 1.00D+00 WtEn= 0.00D+00
 Coeff-Com:  0.345D-05-0.863D-04 0.658D-03-0.922D-03 0.338D-04 0.124D-01
 Coeff-Com: -0.465D-01-0.152D+00 0.119D+01
 Coeff:      0.345D-05-0.863D-04 0.658D-03-0.922D-03 0.338D-04 0.124D-01
 Coeff:     -0.465D-01-0.152D+00 0.119D+01
 Gap=     0.783 Goal=   None    Shift=    0.000
 RMSDP=6.89D-07 MaxDP=6.27D-06 DE=-3.07D-08 OVMax= 2.02D-05

 Cycle  10  Pass 1  IDiag  1:
 E= -100.057224913178     Delta-E=       -0.000000001621 Rises=F Damp=F
 DIIS: error= 1.50D-06 at cycle  10 NSaved=  10.
 NSaved=10 IEnMin=10 EnMin= -100.057224913178     IErMin=10 ErrMin= 1.50D-06
 ErrMax= 1.50D-06  0.00D+00 EMaxC= 1.00D-01 BMatC= 3.56D-11 BMatP= 7.63D-10
 IDIUse=1 WtCom= 1.00D+00 WtEn= 0.00D+00
 Coeff-Com: -0.315D-05 0.142D-04-0.108D-03 0.149D-03-0.113D-03-0.141D-02
 Coeff-Com:  0.959D-02 0.355D-02-0.285D+00 0.127D+01
 Coeff:     -0.315D-05 0.142D-04-0.108D-03 0.149D-03-0.113D-03-0.141D-02
 Coeff:      0.959D-02 0.355D-02-0.285D+00 0.127D+01
 Gap=     0.783 Goal=   None    Shift=    0.000
 RMSDP=2.07D-07 MaxDP=2.83D-06 DE=-1.62D-09 OVMax= 6.47D-06

 Cycle  11  Pass 1  IDiag  1:
 E= -100.057224913266     Delta-E=       -0.000000000088 Rises=F Damp=F
 DIIS: error= 2.48D-07 at cycle  11 NSaved=  11.
 NSaved=11 IEnMin=11 EnMin= -100.057224913266     IErMin=11 ErrMin= 2.48D-07
 ErrMax= 2.48D-07  0.00D+00 EMaxC= 1.00D-01 BMatC= 1.43D-12 BMatP= 3.56D-11
 IDIUse=1 WtCom= 1.00D+00 WtEn= 0.00D+00
 Coeff-Com:  0.244D-06 0.384D-06-0.638D-05 0.167D-04 0.320D-04-0.231D-03
 Coeff-Com:  0.182D-03-0.248D-02 0.497D-01-0.351D+00 0.130D+01
 Coeff:      0.244D-06 0.384D-06-0.638D-05 0.167D-04 0.320D-04-0.231D-03
 Coeff:      0.182D-03-0.248D-02 0.497D-01-0.351D+00 0.130D+01
 Gap=     0.783 Goal=   None    Shift=    0.000
 RMSDP=2.59D-08 MaxDP=3.16D-07 DE=-8.79D-11 OVMax= 9.75D-07

 Cycle  12  Pass 1  IDiag  1:
 E= -100.057224913268     Delta-E=       -0.000000000002 Rises=F Damp=F
 DIIS: error= 2.93D-08 at cycle  12 NSaved=  12.
 NSaved=12 IEnMin=12 EnMin= -100.057224913268     IErMin=12 ErrMin= 2.93D-08
 ErrMax= 2.93D-08  0.00D+00 EMaxC= 1.00D-01 BMatC= 1.73D-14 BMatP= 1.43D-12
 IDIUse=1 WtCom= 1.00D+00 WtEn= 0.00D+00
 Coeff-Com:  0.300D-06-0.836D-06 0.249D-05-0.598D-05 0.367D-07 0.662D-04
 Coeff-Com: -0.182D-03 0.468D-03-0.733D-02 0.685D-01-0.313D+00 0.125D+01
 Coeff:      0.300D-06-0.836D-06 0.249D-05-0.598D-05 0.367D-07 0.662D-04
 Coeff:     -0.182D-03 0.468D-03-0.733D-02 0.685D-01-0.313D+00 0.125D+01
 Gap=     0.783 Goal=   None    Shift=    0.000
 RMSDP=2.86D-09 MaxDP=3.28D-08 DE=-2.10D-12 OVMax= 7.80D-08

 SCF Done:  E(RHF) =  -100.057224913     A.U. after   12 cycles
            NFock= 12  Conv=0.29D-08     -V/T= 2.0006
 KE= 9.999813780100D+01 PE=-2.505242874651D+02 EE= 4.534785496771D+01
 Leave Link  502 at Sun Sep 07 22:45:41 2025, MaxMem=  2147483648 cpu:               1.0 elap:               0.8
 (Enter C:\G16W\l508.exe)
 QCSCF skips out because SCF is already converged.
 Leave Link  508 at Sun Sep 07 22:45:41 2025, MaxMem=  2147483648 cpu:               0.0 elap:               0.4
 (Enter C:\G16W\l801.exe)
 Windowed orbitals will be sorted by symmetry type.
 ExpMin= 1.03D-01 ExpMax= 1.95D+04 ExpMxC= 6.65D+02 IAcc=3 IRadAn=         5 AccDes= 0.00D+00
 HarFok:  IExCor=  205 AccDes= 0.00D+00 IRadAn=         5 IDoV=-2 UseB2=F ITyADJ=14
 ICtDFT= 12500011 ScaDFX=  1.000000  1.000000  1.000000  1.000000
 Largest valence mixing into a core orbital is  9.76D-05
 Largest core mixing into a valence orbital is  1.66D-05
 Range of M.O.s used for correlation:     2    44
 NBasis=    44 NAE=     5 NBE=     5 NFC=     1 NFV=     0
 NROrb=     43 NOA=     4 NOB=     4 NVA=    39 NVB=    39
 Leave Link  801 at Sun Sep 07 22:45:42 2025, MaxMem=  2147483648 cpu:               1.0 elap:               0.4
 (Enter C:\G16W\l804.exe)
 Closed-shell transformation, MDV=  2147483648 ITran=4 ISComp=1.
 Unit  1 TFree=          2705 TCopy=        143576.
 Semi-Direct transformation.
 ModeAB=           2 MOrb=             4 LenV=    2147225625
 LASXX=       145335 LTotXX=      145335 LenRXX=      145335
 LTotAB=      155476 MaxLAS=      219300 LenRXY=      219300
 NonZer=      290670 LenScr=      871424 LnRSAI=           0
 LnScr1=           0 LExtra=           0 Total=      1236059
 MaxDsk=          -1 SrtSym=           F ITran=            4
 DoSDTr:  NPSUse= 20
 JobTyp=0 Pass  1:  I=   1 to   4.
 (rs|ai) integrals will be sorted in core.
 Complete sort for first half transformation.
 First half transformation complete.
 Complete sort for second half transformation.
 Second half transformation complete.
 Spin components of T(2) and E(2):
     alpha-alpha T2 =       0.6514758512D-02 E2=     -0.3476037480D-01
     alpha-beta  T2 =       0.3618893667D-01 E2=     -0.2028820798D+00
     beta-beta   T2 =       0.6514758512D-02 E2=     -0.3476037480D-01
 ANorm=    0.1024313650D+01
 E2 =    -0.2724028294D+00 EUMP2 =    -0.10032962774266D+03
 Leave Link  804 at Sun Sep 07 22:45:42 2025, MaxMem=  2147483648 cpu:               0.0 elap:               0.5
 (Enter C:\G16W\l913.exe)
 CIDS:  MDV=  2147483648.
 Frozen-core window:  NFC=   1 NFV=   0.
 IFCWin=0 IBDFC=1 NFBD=     0     0 NFCmp=     0     0 NFFFC=     0     0
 Using DD3R+UMP44R for 1st iteration.
 Using DD4RQ for 2nd and later iterations.
 Keep R2 and R3 ints in memory in canonical form, NReq=10709607.
 FoFCou: FMM=F IPFlag=           0 FMFlag=           0 FMFlg1=           0
         NFxFlg=           0 DoJE=F BraDBF=F KetDBF=F FulRan=T
         wScrn=  0.000000 ICntrl=       600 IOpCl=  0 I1Cent=           0 NGrid=           0
         NMat0=    1 NMatS0=    990 NMatT0=    0 NMatD0=    1 NMtDS0=    0 NMtDT0=    0
 Symmetry not used in FoFCou.
 Two-electron integral symmetry not used.
 CIDS: In Core Option IDoMem=           1.
 CCSD(T)
 =======
 Iterations=  50 Convergence= 0.100D-06
 Produce multiple copies of IABC intergrals
 Iteration Nr.   1
 **********************
 DD1Dir will call FoFMem   1 times, MxPair=        20
 NAB=    10 NAA=     0 NBB=     0.
 MP4(R+Q)=  0.27101688D-02
 Maximum subspace dimension=  5
 A-vector RMS=  3.2958720D-03 Max=  8.0201099D-03 conv= 1.00D-05.
 RLE energy=       -0.2697084945
 E3=       -0.35639613D-04        EUMP3=      -0.10032966338D+03
 E4(DQ)=   -0.95479712D-03        UMP4(DQ)=   -0.10033061818D+03
 E4(SDQ)=  -0.25509474D-02        UMP4(SDQ)=  -0.10033221433D+03
 VARIATIONAL ENERGIES WITH THE FIRST-ORDER WAVEFUNCTION:
 DE(Corr)= -0.26968159     E(Corr)=     -100.32690650    
 NORM(A)=   0.10237180D+01
 Iteration Nr.   2
 **********************
 DD1Dir will call FoFMem   1 times, MxPair=        20
 NAB=    10 NAA=     0 NBB=     0.
 A-vector RMS=  2.7366222D-04 Max=  2.8172713D-03 conv= 1.00D-05.
 RLE energy=       -0.2743035475
 DE(Corr)= -0.27400650     E(CORR)=     -100.33123141     Delta=-4.32D-03
 NORM(A)=   0.10250276D+01
 Iteration Nr.   3
 **********************
 DD1Dir will call FoFMem   1 times, MxPair=        20
 NAB=    10 NAA=     0 NBB=     0.
 A-vector RMS=  2.9384589D-04 Max=  9.3629750D-04 conv= 1.00D-05.
 RLE energy=       -0.2745022415
 DE(Corr)= -0.27427585     E(CORR)=     -100.33150076     Delta=-2.69D-04
 NORM(A)=   0.10252272D+01
 Iteration Nr.   4
 **********************
 DD1Dir will call FoFMem   1 times, MxPair=        20
 NAB=    10 NAA=     0 NBB=     0.
 A-vector RMS=  4.5263274D-05 Max=  1.9818503D-04 conv= 1.00D-05.
 RLE energy=       -0.2745216284
 DE(Corr)= -0.27450935     E(CORR)=     -100.33173426     Delta=-2.34D-04
 NORM(A)=   0.10252696D+01
 Iteration Nr.   5
 **********************
 DD1Dir will call FoFMem   1 times, MxPair=        20
 NAB=    10 NAA=     0 NBB=     0.
 A-vector RMS=  1.6671512D-05 Max=  8.0618506D-05 conv= 1.00D-05.
 RLE energy=       -0.2745266440
 DE(Corr)= -0.27452489     E(CORR)=     -100.33174981     Delta=-1.55D-05
 NORM(A)=   0.10252742D+01
 Iteration Nr.   6
 **********************
 DD1Dir will call FoFMem   1 times, MxPair=        20
 NAB=    10 NAA=     0 NBB=     0.
 A-vector RMS=  3.6659402D-06 Max=  1.7627143D-05 conv= 1.00D-05.
 RLE energy=       -0.2745249322
 DE(Corr)= -0.27452590     E(CORR)=     -100.33175081     Delta=-1.01D-06
 NORM(A)=   0.10252741D+01
 Iteration Nr.   7
 **********************
 DD1Dir will call FoFMem   1 times, MxPair=        20
 NAB=    10 NAA=     0 NBB=     0.
 A-vector RMS=  1.5443049D-06 Max=  7.9121511D-06 conv= 1.00D-05.
 RLE energy=       -0.2745259797
 DE(Corr)= -0.27452593     E(CORR)=     -100.33175085     Delta=-3.41D-08
 NORM(A)=   0.10252744D+01
 CI/CC converged in    7 iterations to DelEn=-3.41D-08 Conv= 1.00D-07 ErrA1= 1.54D-06 Conv= 1.00D-05
 Wavefunction amplitudes converged. E(Corr)=     -100.33175085    
 Largest amplitude= 4.10D-02
 T4(AAA)= -0.15685218D-03
 T4(AAB)= -0.31774925D-02
 T5(AAA)=  0.78062637D-05
 T5(AAB)=  0.11286470D-03
 Time for triples=        0.00 seconds.
 T4(CCSD)= -0.66686893D-02
 T5(CCSD)=  0.24134192D-03
 CCSD(T)= -0.10033817819D+03
 Discarding MO integrals.
 Leave Link  913 at Sun Sep 07 22:45:45 2025, MaxMem=  2147483648 cpu:               3.0 elap:               3.3
 (Enter C:\G16W\l601.exe)
 Copying SCF densities to generalized density rwf, IOpCl= 0 IROHF=0.

 **********************************************************************

            Population analysis using the SCF Density.

 **********************************************************************

 Alpha  occ. eigenvalues --  -26.28651  -1.58973  -0.75519  -0.64189  -0.64189
 Alpha virt. eigenvalues --    0.14086   0.55346   0.82075   0.84707   0.84707
 Alpha virt. eigenvalues --    0.99194   0.99194   1.43084   1.55312   2.23099
 Alpha virt. eigenvalues --    2.23099   2.30334   2.52463   2.52463   3.18875
 Alpha virt. eigenvalues --    3.53422   3.53422   3.85289   3.85289   4.22624
 Alpha virt. eigenvalues --    4.27960   4.27960   5.06008   5.34257   5.34257
 Alpha virt. eigenvalues --    6.26444   7.41176   7.41176   7.58606   7.58606
 Alpha virt. eigenvalues --    8.39316   8.39316   8.48105   8.90817   8.90817
 Alpha virt. eigenvalues --    9.32624   9.32624   9.67772  12.34691
          Condensed to atoms (all electrons):
               1          2
     1  H    0.324402   0.321848
     2  F    0.321848   9.031901
 Mulliken charges:
               1
     1  H    0.353749
     2  F   -0.353749
 Sum of Mulliken charges =   0.00000
 Mulliken charges with hydrogens summed into heavy atoms:
               1
     2  F    0.000000
 Electronic spatial extent (au):  <R**2>=             41.0431
 Charge=              0.0000 electrons
 Dipole moment (field-independent basis, Debye):
    X=              0.0000    Y=              0.0000    Z=             -1.9662  Tot=              1.9662
 Quadrupole moment (field-independent basis, Debye-Ang):
   XX=             -5.5583   YY=             -5.5583   ZZ=             -6.6993
   XY=              0.0000   XZ=              0.0000   YZ=              0.0000
 Traceless Quadrupole moment (field-independent basis, Debye-Ang):
   XX=              0.3803   YY=              0.3803   ZZ=             -0.7607
   XY=              0.0000   XZ=              0.0000   YZ=              0.0000
 Octapole moment (field-independent basis, Debye-Ang**2):
  XXX=              0.0000  YYY=              0.0000  ZZZ=            -14.7244  XYY=              0.0000
  XXY=              0.0000  XXZ=             -4.7992  XZZ=              0.0000  YZZ=              0.0000
  YYZ=             -4.7992  XYZ=              0.0000
 Hexadecapole moment (field-independent basis, Debye-Ang**3):
 XXXX=             -3.2972 YYYY=             -3.2972 ZZZZ=            -28.5694 XXXY=              0.0000
 XXXZ=              0.0000 YYYX=              0.0000 YYYZ=              0.0000 ZZZX=              0.0000
 ZZZY=              0.0000 XXYY=             -1.0991 XXZZ=             -5.4437 YYZZ=             -5.4437
 XXYZ=              0.0000 YYXZ=              0.0000 ZZXY=              0.0000
 N-N= 5.121069783097D+00 E-N=-2.505242870021D+02  KE= 9.999813780100D+01
 Leave Link  601 at Sun Sep 07 22:45:46 2025, MaxMem=  2147483648 cpu:               0.0 elap:               0.4
 (Enter C:\G16W\l9999.exe)
 1|1|UNPC-DESKTOP-SI45VP7|SP|RCCSD(T)-FC|CC-pVTZ|F1H1|DOG OF ROMAN|07-S
 ep-2025|0||#p CCSD(T)/ cc-pVTZ scf=(tight,xqc,maxcycle=512) guess=mix 
 nosymm||HF PES scan — UCCSDT/ cc-pVTZ R: 0.93||0,1|H|F,1,0.93||Versi
 on=EM64W-G16RevB.01|HF=-100.0572249|MP2=-100.3296277|MP3=-100.3296634|
 MP4D=-100.3333283|MP4DQ=-100.3306182|MP4SDQ=-100.3322143|CCSD=-100.331
 7508|CCSD(T)=-100.3381782|RMSD=2.863e-009|PG=C*V [C*(H1F1)]||@


 TO SEE A WORLD IN A GRAIN OF SAND
 AND A HEAVEN IN A WILD FLOWER
 HOLD INFINITY IN THE PALM OF YOUR HAND
 AND ETERNITY IN AN HOUR

                       -- WILLIAM BLAKE
 Job cpu time:       0 days  0 hours  0 minutes  9.0 seconds.
 Elapsed time:       0 days  0 hours  0 minutes  8.8 seconds.
 File lengths (MBytes):  RWF=     19 Int=      0 D2E=      0 Chk=      1 Scr=      1
 Normal termination of Gaussian 16 at Sun Sep 07 22:45:46 2025.
