 Entering Link 1 = C:\G16W\l1.exe PID=     29896.
  
 Copyright (c) 1988-2017, Gaussian, Inc.  All Rights Reserved.
  
 This is part of the Gaussian(R) 16 program.  It is based on
 the Gaussian(R) 09 system (copyright 2009, Gaussian, Inc.),
 the Gaussian(R) 03 system (copyright 2003, Gaussian, Inc.),
 the Gaussian(R) 98 system (copyright 1998, Gaussian, Inc.),
 the Gaussian(R) 94 system (copyright 1995, Gaussian, Inc.),
 the Gaussian 92(TM) system (copyright 1992, Gaussian, Inc.),
 the Gaussian 90(TM) system (copyright 1990, Gaussian, Inc.),
 the Gaussian 88(TM) system (copyright 1988, Gaussian, Inc.),
 the Gaussian 86(TM) system (copyright 1986, Carnegie Mellon
 University), and the Gaussian 82(TM) system (copyright 1983,
 Carnegie Mellon University). Gaussian is a federally registered
 trademark of Gaussian, Inc.
  
 This software contains proprietary and confidential information,
 including trade secrets, belonging to Gaussian, Inc.
  
 This software is provided under written license and may be
 used, copied, transmitted, or stored only in accord with that
 written license.
  
 The following legend is applicable only to US Government
 contracts under FAR:
  
                    RESTRICTED RIGHTS LEGEND
  
 Use, reproduction and disclosure by the US Government is
 subject to restrictions as set forth in subparagraphs (a)
 and (c) of the Commercial Computer Software - Restricted
 Rights clause in FAR 52.227-19.
  
 Gaussian, Inc.
 340 Quinnipiac St., Bldg. 40, Wallingford CT 06492
  
  
 ---------------------------------------------------------------
 Warning -- This program may not be used in any manner that
 competes with the business of Gaussian, Inc. or will provide
 assistance to any competitor of Gaussian, Inc.  The licensee
 of this program is prohibited from giving any competitor of
 Gaussian, Inc. access to this program.  By using this program,
 the user acknowledges that Gaussian, Inc. is engaged in the
 business of creating and licensing software in the field of
 computational chemistry and represents and warrants to the
 licensee that it is not a competitor of Gaussian, Inc. and that
 it will not use this program in any manner prohibited above.
 ---------------------------------------------------------------
  

 Cite this work as:
 Gaussian 16, Revision B.01,
 M. J. Frisch, G. W. Trucks, H. B. Schlegel, G. E. Scuseria, 
 M. A. Robb, J. R. Cheeseman, G. Scalmani, V. Barone, 
 G. A. Petersson, H. Nakatsuji, X. Li, M. Caricato, A. V. Marenich, 
 J. Bloino, B. G. Janesko, R. Gomperts, B. Mennucci, H. P. Hratchian, 
 J. V. Ortiz, A. F. Izmaylov, J. L. Sonnenberg, D. Williams-Young, 
 F. Ding, F. Lipparini, F. Egidi, J. Goings, B. Peng, A. Petrone, 
 T. Henderson, D. Ranasinghe, V. G. Zakrzewski, J. Gao, N. Rega, 
 G. Zheng, W. Liang, M. Hada, M. Ehara, K. Toyota, R. Fukuda, 
 J. Hasegawa, M. Ishida, T. Nakajima, Y. Honda, O. Kitao, H. Nakai, 
 T. Vreven, K. Throssell, J. A. Montgomery, Jr., J. E. Peralta, 
 F. Ogliaro, M. J. Bearpark, J. J. Heyd, E. N. Brothers, K. N. Kudin, 
 V. N. Staroverov, T. A. Keith, R. Kobayashi, J. Normand, 
 K. Raghavachari, A. P. Rendell, J. C. Burant, S. S. Iyengar, 
 J. Tomasi, M. Cossi, J. M. Millam, M. Klene, C. Adamo, R. Cammi, 
 J. W. Ochterski, R. L. Martin, K. Morokuma, O. Farkas, 
 J. B. Foresman, and D. J. Fox, Gaussian, Inc., Wallingford CT, 2016.
 
 ******************************************
 Gaussian 16:  EM64W-G16RevB.01 16-Dec-2017
                07-Sep-2025 
 ******************************************
 %chk=HF_UCCSDT_pVTZ_smallscan.chk
 %mem=16GB
 %NProcShared=20
 Will use up to   20 processors via shared memory.
 -----------------------------------------------------------------
 #p CCSD(T)/ cc-pVTZ scf=(tight,xqc,maxcycle=512) guess=mix nosymm
 -----------------------------------------------------------------
 1/38=1,172=1/1;
 2/12=2,15=1,17=6,18=5,40=1/2;
 3/5=16,6=1,11=9,25=1,30=1/1,2,3;
 4/13=-1/1;
 5/5=2,7=512,8=3,13=1,32=2,38=5/2,8;
 8/6=4,9=120000,10=1/1,4;
 9/5=7,14=2/13;
 6/7=2,8=2,9=2,10=2/1;
 99/5=1,9=1/99;
 Leave Link    1 at Sun Sep 07 22:46:30 2025, MaxMem=  2147483648 cpu:               1.0 elap:               0.3
 (Enter C:\G16W\l101.exe)
 ---------------------------------------
 HF PES scan — UCCSDT/ cc-pVTZ R: 0.95
 ---------------------------------------
 Symbolic Z-matrix:
 Charge =  0 Multiplicity = 1
 H
 F                    1    R
       Variables:
  R                     0.95                     
 
 ITRead=  0  0
 MicOpt= -1 -1
 NAtoms=      2 NQM=        2 NQMF=       0 NMMI=      0 NMMIF=      0
                NMic=       0 NMicF=      0.
                    Isotopes and Nuclear Properties:
 (Nuclear quadrupole moments (NQMom) in fm**2, nuclear magnetic moments (NMagM)
  in nuclear magnetons)

  Atom         1           2
 IAtWgt=           1          19
 AtmWgt=   1.0078250  18.9984033
 NucSpn=           1           1
 AtZEff=   0.0000000   0.0000000
 NQMom=    0.0000000   0.0000000
 NMagM=    2.7928460   2.6288670
 AtZNuc=   1.0000000   9.0000000
 Leave Link  101 at Sun Sep 07 22:46:30 2025, MaxMem=  2147483648 cpu:               0.0 elap:               0.4
 (Enter C:\G16W\l202.exe)
                          Input orientation:                          
 ---------------------------------------------------------------------
 Center     Atomic      Atomic             Coordinates (Angstroms)
 Number     Number       Type             X           Y           Z
 ---------------------------------------------------------------------
      1          1           0        0.000000    0.000000    0.000000
      2          9           0        0.000000    0.000000    0.950000
 ---------------------------------------------------------------------
 Symmetry turned off by external request.
 Stoichiometry    FH
 Framework group  C*V[C*(HF)]
 Deg. of freedom     1
 Full point group                 C*V     NOp   4
 Rotational constants (GHZ):           0.0000000         585.1038618         585.1038618
 Leave Link  202 at Sun Sep 07 22:46:30 2025, MaxMem=  2147483648 cpu:               0.0 elap:               0.4
 (Enter C:\G16W\l301.exe)
 Standard basis: CC-pVTZ (5D, 7F)
 Ernie: Thresh=  0.10000D-02 Tol=  0.10000D-05 Strict=F.
 Ernie:  3 primitive shells out of 34 were deleted.
    44 basis functions,    69 primitive gaussians,    50 cartesian basis functions
     5 alpha electrons        5 beta electrons
       nuclear repulsion energy         5.0132577877 Hartrees.
 IExCor=    0 DFT=F Ex=HF Corr=None ExCW=0 ScaHFX=  1.000000
 ScaDFX=  1.000000  1.000000  1.000000  1.000000 ScalE2=  1.000000  1.000000
 IRadAn=      5 IRanWt=     -1 IRanGd=            0 ICorTp=0 IEmpDi=  4
 NAtoms=    2 NActive=    2 NUniq=    2 SFac= 1.00D+00 NAtFMM=   60 NAOKFM=F Big=F
 Integral buffers will be    131072 words long.
 Raffenetti 1 integral format.
 Two-electron integral symmetry is turned off.
 Leave Link  301 at Sun Sep 07 22:46:31 2025, MaxMem=  2147483648 cpu:               1.0 elap:               0.3
 (Enter C:\G16W\l302.exe)
 NPDir=0 NMtPBC=     1 NCelOv=     1 NCel=       1 NClECP=     1 NCelD=      1
         NCelK=      1 NCelE2=     1 NClLst=     1 CellRange=     0.0.
 One-electron integrals computed using PRISM.
 NBasis=    44 RedAO= T EigKep=  4.38D-03  NBF=    44
 NBsUse=    44 1.00D-06 EigRej= -1.00D+00 NBFU=    44
 Leave Link  302 at Sun Sep 07 22:46:31 2025, MaxMem=  2147483648 cpu:               0.0 elap:               0.5
 (Enter C:\G16W\l303.exe)
 DipDrv:  MaxL=1.
 Leave Link  303 at Sun Sep 07 22:46:32 2025, MaxMem=  2147483648 cpu:               1.0 elap:               0.4
 (Enter C:\G16W\l401.exe)
 ExpMin= 1.03D-01 ExpMax= 1.95D+04 ExpMxC= 6.65D+02 IAcc=3 IRadAn=         5 AccDes= 0.00D+00
 Harris functional with IExCor=  205 and IRadAn=       5 diagonalized for initial guess.
 HarFok:  IExCor=  205 AccDes= 0.00D+00 IRadAn=         5 IDoV= 1 UseB2=F ITyADJ=14
 ICtDFT=  3500011 ScaDFX=  1.000000  1.000000  1.000000  1.000000
 FoFCou: FMM=F IPFlag=           0 FMFlag=      100000 FMFlg1=           0
         NFxFlg=           0 DoJE=T BraDBF=F KetDBF=T FulRan=T
         wScrn=  0.000000 ICntrl=       500 IOpCl=  0 I1Cent=   200000004 NGrid=           0
         NMat0=    1 NMatS0=      1 NMatT0=    0 NMatD0=    1 NMtDS0=    0 NMtDT0=    0
 Symmetry not used in FoFCou.
 Harris En= -100.055604605640    
 JPrj=0 DoOrth=F DoCkMO=T.
 Mixing orbitals, IMix= 1 IMixAn=  0 NRI=1 NE=    5 Coef=  7.07106781D-01  7.07106781D-01
 Leave Link  401 at Sun Sep 07 22:46:32 2025, MaxMem=  2147483648 cpu:               0.0 elap:               0.7
 (Enter C:\G16W\l502.exe)
 Keep R1 ints in memory in canonical form, NReq=10216316.
 FoFCou: FMM=F IPFlag=           0 FMFlag=           0 FMFlg1=           0
         NFxFlg=           0 DoJE=F BraDBF=F KetDBF=F FulRan=T
         wScrn=  0.000000 ICntrl=       600 IOpCl=  0 I1Cent=           0 NGrid=           0
         NMat0=    1 NMatS0=    990 NMatT0=    0 NMatD0=    1 NMtDS0=    0 NMtDT0=    0
 Symmetry not used in FoFCou.
 Two-electron integral symmetry not used.
 Closed shell SCF:
 Using DIIS extrapolation, IDIIS=  1040.
 NGot=  2147483648 LenX=  2146986637 LenY=  2146983696
 Requested convergence on RMS density matrix=1.00D-08 within 128 cycles.
 Requested convergence on MAX density matrix=1.00D-06.
 Requested convergence on             energy=1.00D-06.
 No special actions if energy rises.

 Cycle   1  Pass 1  IDiag  1:
 E= -99.5496509145001    
 DIIS: error= 5.63D-02 at cycle   1 NSaved=   1.
 NSaved= 1 IEnMin= 1 EnMin= -99.5496509145001     IErMin= 1 ErrMin= 5.63D-02
 ErrMax= 5.63D-02  0.00D+00 EMaxC= 1.00D-01 BMatC= 1.96D-01 BMatP= 1.96D-01
 IDIUse=3 WtCom= 4.37D-01 WtEn= 5.63D-01
 Coeff-Com:  0.100D+01
 Coeff-En:   0.100D+01
 Coeff:      0.100D+01
 Gap=     0.354 Goal=   None    Shift=    0.000
 GapD=    0.354 DampG=1.000 DampE=0.500 DampFc=0.5000 IDamp=-1.
 Damping current iteration by 5.00D-01
 RMSDP=2.05D-02 MaxDP=5.24D-01              OVMax= 5.00D-01

 Cycle   2  Pass 1  IDiag  1:
 E= -99.7334403107868     Delta-E=       -0.183789396287 Rises=F Damp=T
 DIIS: error= 3.73D-02 at cycle   2 NSaved=   2.
 NSaved= 2 IEnMin= 2 EnMin= -99.7334403107868     IErMin= 2 ErrMin= 3.73D-02
 ErrMax= 3.73D-02  0.00D+00 EMaxC= 1.00D-01 BMatC= 6.34D-02 BMatP= 1.96D-01
 IDIUse=3 WtCom= 6.27D-01 WtEn= 3.73D-01
 Coeff-Com: -0.139D+00 0.114D+01
 Coeff-En:   0.000D+00 0.100D+01
 Coeff:     -0.873D-01 0.109D+01
 Gap=     0.627 Goal=   None    Shift=    0.000
 RMSDP=1.16D-02 MaxDP=2.83D-01 DE=-1.84D-01 OVMax= 7.33D-02

 Cycle   3  Pass 1  IDiag  1:
 E= -100.009556859216     Delta-E=       -0.276116548429 Rises=F Damp=F
 DIIS: error= 2.05D-02 at cycle   3 NSaved=   3.
 NSaved= 3 IEnMin= 3 EnMin= -100.009556859216     IErMin= 3 ErrMin= 2.05D-02
 ErrMax= 2.05D-02  0.00D+00 EMaxC= 1.00D-01 BMatC= 1.49D-02 BMatP= 6.34D-02
 IDIUse=3 WtCom= 7.95D-01 WtEn= 2.05D-01
 Coeff-Com:  0.138D+00-0.400D+00 0.126D+01
 Coeff-En:   0.000D+00 0.000D+00 0.100D+01
 Coeff:      0.110D+00-0.318D+00 0.121D+01
 Gap=     0.720 Goal=   None    Shift=    0.000
 RMSDP=3.73D-03 MaxDP=3.92D-02 DE=-2.76D-01 OVMax= 1.14D-01

 Cycle   4  Pass 1  IDiag  1:
 E= -100.047244012839     Delta-E=       -0.037687153623 Rises=F Damp=F
 DIIS: error= 9.91D-03 at cycle   4 NSaved=   4.
 NSaved= 4 IEnMin= 4 EnMin= -100.047244012839     IErMin= 4 ErrMin= 9.91D-03
 ErrMax= 9.91D-03  0.00D+00 EMaxC= 1.00D-01 BMatC= 2.75D-03 BMatP= 1.49D-02
 IDIUse=3 WtCom= 9.01D-01 WtEn= 9.91D-02
 Coeff-Com: -0.166D+00 0.337D+00-0.575D+00 0.140D+01
 Coeff-En:   0.000D+00 0.000D+00 0.000D+00 0.100D+01
 Coeff:     -0.149D+00 0.304D+00-0.518D+00 0.136D+01
 Gap=     0.773 Goal=   None    Shift=    0.000
 RMSDP=1.69D-03 MaxDP=1.70D-02 DE=-3.77D-02 OVMax= 6.18D-02

 Cycle   5  Pass 1  IDiag  1:
 E= -100.054491082077     Delta-E=       -0.007247069239 Rises=F Damp=F
 DIIS: error= 3.41D-03 at cycle   5 NSaved=   5.
 NSaved= 5 IEnMin= 5 EnMin= -100.054491082077     IErMin= 5 ErrMin= 3.41D-03
 ErrMax= 3.41D-03  0.00D+00 EMaxC= 1.00D-01 BMatC= 2.96D-04 BMatP= 2.75D-03
 IDIUse=3 WtCom= 9.66D-01 WtEn= 3.41D-02
 Coeff-Com:  0.446D-01-0.101D+00 0.334D-01-0.347D+00 0.137D+01
 Coeff-En:   0.000D+00 0.000D+00 0.000D+00 0.000D+00 0.100D+01
 Coeff:      0.431D-01-0.972D-01 0.323D-01-0.335D+00 0.136D+01
 Gap=     0.781 Goal=   None    Shift=    0.000
 RMSDP=7.18D-04 MaxDP=6.27D-03 DE=-7.25D-03 OVMax= 2.73D-02

 Cycle   6  Pass 1  IDiag  1:
 E= -100.055321138886     Delta-E=       -0.000830056808 Rises=F Damp=F
 DIIS: error= 7.41D-04 at cycle   6 NSaved=   6.
 NSaved= 6 IEnMin= 6 EnMin= -100.055321138886     IErMin= 6 ErrMin= 7.41D-04
 ErrMax= 7.41D-04  0.00D+00 EMaxC= 1.00D-01 BMatC= 2.25D-05 BMatP= 2.96D-04
 IDIUse=3 WtCom= 9.93D-01 WtEn= 7.41D-03
 Coeff-Com: -0.359D-02 0.440D-02 0.546D-01-0.499D-01-0.211D+00 0.121D+01
 Coeff-En:   0.000D+00 0.000D+00 0.000D+00 0.000D+00 0.000D+00 0.100D+01
 Coeff:     -0.357D-02 0.437D-02 0.541D-01-0.496D-01-0.210D+00 0.120D+01
 Gap=     0.777 Goal=   None    Shift=    0.000
 RMSDP=8.84D-05 MaxDP=8.06D-04 DE=-8.30D-04 OVMax= 1.88D-03

 Cycle   7  Pass 1  IDiag  1:
 E= -100.055345696275     Delta-E=       -0.000024557389 Rises=F Damp=F
 DIIS: error= 1.08D-04 at cycle   7 NSaved=   7.
 NSaved= 7 IEnMin= 7 EnMin= -100.055345696275     IErMin= 7 ErrMin= 1.08D-04
 ErrMax= 1.08D-04  0.00D+00 EMaxC= 1.00D-01 BMatC= 7.65D-07 BMatP= 2.25D-05
 IDIUse=3 WtCom= 9.99D-01 WtEn= 1.08D-03
 Coeff-Com: -0.154D-02 0.422D-02-0.191D-01 0.345D-01-0.248D-01-0.221D+00
 Coeff-Com:  0.123D+01
 Coeff-En:   0.000D+00 0.000D+00 0.000D+00 0.000D+00 0.000D+00 0.000D+00
 Coeff-En:   0.100D+01
 Coeff:     -0.154D-02 0.421D-02-0.190D-01 0.344D-01-0.247D-01-0.221D+00
 Coeff:      0.123D+01
 Gap=     0.777 Goal=   None    Shift=    0.000
 RMSDP=2.22D-05 MaxDP=1.94D-04 DE=-2.46D-05 OVMax= 8.38D-04

 Cycle   8  Pass 1  IDiag  1:
 E= -100.055347014264     Delta-E=       -0.000001317990 Rises=F Damp=F
 DIIS: error= 3.16D-05 at cycle   8 NSaved=   8.
 NSaved= 8 IEnMin= 8 EnMin= -100.055347014264     IErMin= 8 ErrMin= 3.16D-05
 ErrMax= 3.16D-05  0.00D+00 EMaxC= 1.00D-01 BMatC= 2.34D-08 BMatP= 7.65D-07
 IDIUse=1 WtCom= 1.00D+00 WtEn= 0.00D+00
 Coeff-Com: -0.117D-03 0.215D-03-0.515D-03 0.719D-03 0.148D-02-0.302D-01
 Coeff-Com: -0.352D-01 0.106D+01
 Coeff:     -0.117D-03 0.215D-03-0.515D-03 0.719D-03 0.148D-02-0.302D-01
 Coeff:     -0.352D-01 0.106D+01
 Gap=     0.777 Goal=   None    Shift=    0.000
 RMSDP=2.97D-06 MaxDP=2.77D-05 DE=-1.32D-06 OVMax= 8.68D-05

 Cycle   9  Pass 1  IDiag  1:
 E= -100.055347050726     Delta-E=       -0.000000036462 Rises=F Damp=F
 DIIS: error= 7.90D-06 at cycle   9 NSaved=   9.
 NSaved= 9 IEnMin= 9 EnMin= -100.055347050726     IErMin= 9 ErrMin= 7.90D-06
 ErrMax= 7.90D-06  0.00D+00 EMaxC= 1.00D-01 BMatC= 9.21D-10 BMatP= 2.34D-08
 IDIUse=1 WtCom= 1.00D+00 WtEn= 0.00D+00
 Coeff-Com:  0.354D-05-0.921D-04 0.692D-03-0.105D-02 0.550D-03 0.119D-01
 Coeff-Com: -0.472D-01-0.159D+00 0.119D+01
 Coeff:      0.354D-05-0.921D-04 0.692D-03-0.105D-02 0.550D-03 0.119D-01
 Coeff:     -0.472D-01-0.159D+00 0.119D+01
 Gap=     0.777 Goal=   None    Shift=    0.000
 RMSDP=7.69D-07 MaxDP=7.30D-06 DE=-3.65D-08 OVMax= 2.37D-05

 Cycle  10  Pass 1  IDiag  1:
 E= -100.055347052757     Delta-E=       -0.000000002030 Rises=F Damp=F
 DIIS: error= 1.58D-06 at cycle  10 NSaved=  10.
 NSaved=10 IEnMin=10 EnMin= -100.055347052757     IErMin=10 ErrMin= 1.58D-06
 ErrMax= 1.58D-06  0.00D+00 EMaxC= 1.00D-01 BMatC= 4.29D-11 BMatP= 9.21D-10
 IDIUse=1 WtCom= 1.00D+00 WtEn= 0.00D+00
 Coeff-Com: -0.222D-05 0.144D-04-0.123D-03 0.184D-03-0.208D-03-0.132D-02
 Coeff-Com:  0.104D-01 0.582D-03-0.283D+00 0.127D+01
 Coeff:     -0.222D-05 0.144D-04-0.123D-03 0.184D-03-0.208D-03-0.132D-02
 Coeff:      0.104D-01 0.582D-03-0.283D+00 0.127D+01
 Gap=     0.777 Goal=   None    Shift=    0.000
 RMSDP=2.27D-07 MaxDP=2.56D-06 DE=-2.03D-09 OVMax= 7.08D-06

 Cycle  11  Pass 1  IDiag  1:
 E= -100.055347052861     Delta-E=       -0.000000000104 Rises=F Damp=F
 DIIS: error= 2.46D-07 at cycle  11 NSaved=  11.
 NSaved=11 IEnMin=11 EnMin= -100.055347052861     IErMin=11 ErrMin= 2.46D-07
 ErrMax= 2.46D-07  0.00D+00 EMaxC= 1.00D-01 BMatC= 1.60D-12 BMatP= 4.29D-11
 IDIUse=1 WtCom= 1.00D+00 WtEn= 0.00D+00
 Coeff-Com:  0.532D-06-0.333D-06-0.473D-05 0.156D-04 0.327D-04-0.227D-03
 Coeff-Com:  0.103D-03-0.196D-02 0.480D-01-0.335D+00 0.129D+01
 Coeff:      0.532D-06-0.333D-06-0.473D-05 0.156D-04 0.327D-04-0.227D-03
 Coeff:      0.103D-03-0.196D-02 0.480D-01-0.335D+00 0.129D+01
 Gap=     0.777 Goal=   None    Shift=    0.000
 RMSDP=2.82D-08 MaxDP=3.46D-07 DE=-1.04D-10 OVMax= 1.02D-06

 Cycle  12  Pass 1  IDiag  1:
 E= -100.055347052863     Delta-E=       -0.000000000003 Rises=F Damp=F
 DIIS: error= 2.73D-08 at cycle  12 NSaved=  12.
 NSaved=12 IEnMin=12 EnMin= -100.055347052863     IErMin=12 ErrMin= 2.73D-08
 ErrMax= 2.73D-08  0.00D+00 EMaxC= 1.00D-01 BMatC= 2.12D-14 BMatP= 1.60D-12
 IDIUse=1 WtCom= 1.00D+00 WtEn= 0.00D+00
 Coeff-Com:  0.262D-06-0.733D-06 0.239D-05-0.680D-05 0.112D-05 0.660D-04
 Coeff-Com: -0.171D-03 0.547D-03-0.855D-02 0.727D-01-0.342D+00 0.128D+01
 Coeff:      0.262D-06-0.733D-06 0.239D-05-0.680D-05 0.112D-05 0.660D-04
 Coeff:     -0.171D-03 0.547D-03-0.855D-02 0.727D-01-0.342D+00 0.128D+01
 Gap=     0.777 Goal=   None    Shift=    0.000
 RMSDP=3.18D-09 MaxDP=2.79D-08 DE=-2.53D-12 OVMax= 9.10D-08

 SCF Done:  E(RHF) =  -100.055347053     A.U. after   12 cycles
            NFock= 12  Conv=0.32D-08     -V/T= 2.0010
 KE= 9.995897219920D+01 PE=-2.503024597321D+02 EE= 4.527488269241D+01
 Leave Link  502 at Sun Sep 07 22:46:33 2025, MaxMem=  2147483648 cpu:               1.0 elap:               0.9
 (Enter C:\G16W\l508.exe)
 QCSCF skips out because SCF is already converged.
 Leave Link  508 at Sun Sep 07 22:46:34 2025, MaxMem=  2147483648 cpu:               1.0 elap:               0.3
 (Enter C:\G16W\l801.exe)
 Windowed orbitals will be sorted by symmetry type.
 ExpMin= 1.03D-01 ExpMax= 1.95D+04 ExpMxC= 6.65D+02 IAcc=3 IRadAn=         5 AccDes= 0.00D+00
 HarFok:  IExCor=  205 AccDes= 0.00D+00 IRadAn=         5 IDoV=-2 UseB2=F ITyADJ=14
 ICtDFT= 12500011 ScaDFX=  1.000000  1.000000  1.000000  1.000000
 Largest valence mixing into a core orbital is  9.79D-05
 Largest core mixing into a valence orbital is  1.69D-05
 Range of M.O.s used for correlation:     2    44
 NBasis=    44 NAE=     5 NBE=     5 NFC=     1 NFV=     0
 NROrb=     43 NOA=     4 NOB=     4 NVA=    39 NVB=    39
 Leave Link  801 at Sun Sep 07 22:46:34 2025, MaxMem=  2147483648 cpu:               0.0 elap:               0.4
 (Enter C:\G16W\l804.exe)
 Closed-shell transformation, MDV=  2147483648 ITran=4 ISComp=1.
 Unit  1 TFree=          2705 TCopy=        143576.
 Semi-Direct transformation.
 ModeAB=           2 MOrb=             4 LenV=    2147225625
 LASXX=       145335 LTotXX=      145335 LenRXX=      145335
 LTotAB=      155476 MaxLAS=      219300 LenRXY=      219300
 NonZer=      290670 LenScr=      871424 LnRSAI=           0
 LnScr1=           0 LExtra=           0 Total=      1236059
 MaxDsk=          -1 SrtSym=           F ITran=            4
 DoSDTr:  NPSUse= 20
 JobTyp=0 Pass  1:  I=   1 to   4.
 (rs|ai) integrals will be sorted in core.
 Complete sort for first half transformation.
 First half transformation complete.
 Complete sort for second half transformation.
 Second half transformation complete.
 Spin components of T(2) and E(2):
     alpha-alpha T2 =       0.6590211354D-02 E2=     -0.3486867307D-01
     alpha-beta  T2 =       0.3673593797D-01 E2=     -0.2036287882D+00
     beta-beta   T2 =       0.6590211354D-02 E2=     -0.3486867307D-01
 ANorm=    0.1024654264D+01
 E2 =    -0.2733661343D+00 EUMP2 =    -0.10032871318720D+03
 Leave Link  804 at Sun Sep 07 22:46:35 2025, MaxMem=  2147483648 cpu:               1.0 elap:               0.5
 (Enter C:\G16W\l913.exe)
 CIDS:  MDV=  2147483648.
 Frozen-core window:  NFC=   1 NFV=   0.
 IFCWin=0 IBDFC=1 NFBD=     0     0 NFCmp=     0     0 NFFFC=     0     0
 Using DD3R+UMP44R for 1st iteration.
 Using DD4RQ for 2nd and later iterations.
 Keep R2 and R3 ints in memory in canonical form, NReq=10709607.
 FoFCou: FMM=F IPFlag=           0 FMFlag=           0 FMFlg1=           0
         NFxFlg=           0 DoJE=F BraDBF=F KetDBF=F FulRan=T
         wScrn=  0.000000 ICntrl=       600 IOpCl=  0 I1Cent=           0 NGrid=           0
         NMat0=    1 NMatS0=    990 NMatT0=    0 NMatD0=    1 NMtDS0=    0 NMtDT0=    0
 Symmetry not used in FoFCou.
 Two-electron integral symmetry not used.
 CIDS: In Core Option IDoMem=           1.
 CCSD(T)
 =======
 Iterations=  50 Convergence= 0.100D-06
 Produce multiple copies of IABC intergrals
 Iteration Nr.   1
 **********************
 DD1Dir will call FoFMem   1 times, MxPair=        20
 NAB=    10 NAA=     0 NBB=     0.
 MP4(R+Q)=  0.27492756D-02
 Maximum subspace dimension=  5
 A-vector RMS=  3.3886127D-03 Max=  8.2032899D-03 conv= 1.00D-05.
 RLE energy=       -0.2703981813
 E3=        0.20201249D-03        EUMP3=      -0.10032851117D+03
 E4(DQ)=   -0.10230867D-02        UMP4(DQ)=   -0.10032953426D+03
 E4(SDQ)=  -0.26804930D-02        UMP4(SDQ)=  -0.10033119167D+03
 VARIATIONAL ENERGIES WITH THE FIRST-ORDER WAVEFUNCTION:
 DE(Corr)= -0.27036561     E(Corr)=     -100.32571267    
 NORM(A)=   0.10240221D+01
 Iteration Nr.   2
 **********************
 DD1Dir will call FoFMem   1 times, MxPair=        20
 NAB=    10 NAA=     0 NBB=     0.
 A-vector RMS=  2.8532193D-04 Max=  2.9700028D-03 conv= 1.00D-05.
 RLE energy=       -0.2751294313
 DE(Corr)= -0.27482605     E(CORR)=     -100.33017310     Delta=-4.46D-03
 NORM(A)=   0.10253986D+01
 Iteration Nr.   3
 **********************
 DD1Dir will call FoFMem   1 times, MxPair=        20
 NAB=    10 NAA=     0 NBB=     0.
 A-vector RMS=  3.1470476D-04 Max=  1.0381407D-03 conv= 1.00D-05.
 RLE energy=       -0.2753410296
 DE(Corr)= -0.27509942     E(CORR)=     -100.33044647     Delta=-2.73D-04
 NORM(A)=   0.10256174D+01
 Iteration Nr.   4
 **********************
 DD1Dir will call FoFMem   1 times, MxPair=        20
 NAB=    10 NAA=     0 NBB=     0.
 A-vector RMS=  4.8429119D-05 Max=  2.1989858D-04 conv= 1.00D-05.
 RLE energy=       -0.2753622800
 DE(Corr)= -0.27534873     E(CORR)=     -100.33069579     Delta=-2.49D-04
 NORM(A)=   0.10256650D+01
 Iteration Nr.   5
 **********************
 DD1Dir will call FoFMem   1 times, MxPair=        20
 NAB=    10 NAA=     0 NBB=     0.
 A-vector RMS=  1.8846519D-05 Max=  9.1965615D-05 conv= 1.00D-05.
 RLE energy=       -0.2753678228
 DE(Corr)= -0.27536583     E(CORR)=     -100.33071288     Delta=-1.71D-05
 NORM(A)=   0.10256705D+01
 Iteration Nr.   6
 **********************
 DD1Dir will call FoFMem   1 times, MxPair=        20
 NAB=    10 NAA=     0 NBB=     0.
 A-vector RMS=  4.2908478D-06 Max=  2.0778051D-05 conv= 1.00D-05.
 RLE energy=       -0.2753658583
 DE(Corr)= -0.27536698     E(CORR)=     -100.33071404     Delta=-1.15D-06
 NORM(A)=   0.10256705D+01
 Iteration Nr.   7
 **********************
 DD1Dir will call FoFMem   1 times, MxPair=        20
 NAB=    10 NAA=     0 NBB=     0.
 A-vector RMS=  1.7521733D-06 Max=  8.9154303D-06 conv= 1.00D-05.
 RLE energy=       -0.2753670833
 DE(Corr)= -0.27536703     E(CORR)=     -100.33071408     Delta=-4.58D-08
 NORM(A)=   0.10256709D+01
 CI/CC converged in    7 iterations to DelEn=-4.58D-08 Conv= 1.00D-07 ErrA1= 1.75D-06 Conv= 1.00D-05
 Wavefunction amplitudes converged. E(Corr)=     -100.33071408    
 Largest amplitude= 4.23D-02
 T4(AAA)= -0.15797325D-03
 T4(AAB)= -0.32290308D-02
 T5(AAA)=  0.80760930D-05
 T5(AAB)=  0.11763389D-03
 Time for triples=        0.00 seconds.
 T4(CCSD)= -0.67740082D-02
 T5(CCSD)=  0.25141997D-03
 CCSD(T)= -0.10033723667D+03
 Discarding MO integrals.
 Leave Link  913 at Sun Sep 07 22:46:38 2025, MaxMem=  2147483648 cpu:               3.0 elap:               3.5
 (Enter C:\G16W\l601.exe)
 Copying SCF densities to generalized density rwf, IOpCl= 0 IROHF=0.

 **********************************************************************

            Population analysis using the SCF Density.

 **********************************************************************

 Alpha  occ. eigenvalues --  -26.28676  -1.58301  -0.74733  -0.63988  -0.63988
 Alpha virt. eigenvalues --    0.13745   0.54060   0.82664   0.83976   0.83976
 Alpha virt. eigenvalues --    0.99563   0.99563   1.41038   1.55683   2.23357
 Alpha virt. eigenvalues --    2.23357   2.33371   2.51030   2.51030   3.15858
 Alpha virt. eigenvalues --    3.52204   3.52204   3.85192   3.85192   4.21024
 Alpha virt. eigenvalues --    4.25152   4.25152   4.97097   5.32710   5.32710
 Alpha virt. eigenvalues --    6.28415   7.41376   7.41376   7.56780   7.56780
 Alpha virt. eigenvalues --    8.32478   8.32478   8.45211   8.90728   8.90728
 Alpha virt. eigenvalues --    9.31749   9.31749   9.66555  12.15318
          Condensed to atoms (all electrons):
               1          2
     1  H    0.322410   0.316006
     2  F    0.316006   9.045578
 Mulliken charges:
               1
     1  H    0.361584
     2  F   -0.361584
 Sum of Mulliken charges =   0.00000
 Mulliken charges with hydrogens summed into heavy atoms:
               1
     2  F    0.000000
 Electronic spatial extent (au):  <R**2>=             42.3345
 Charge=              0.0000 electrons
 Dipole moment (field-independent basis, Debye):
    X=              0.0000    Y=              0.0000    Z=             -2.0049  Tot=              2.0049
 Quadrupole moment (field-independent basis, Debye-Ang):
   XX=             -5.5770   YY=             -5.5770   ZZ=             -6.7732
   XY=              0.0000   XZ=              0.0000   YZ=              0.0000
 Traceless Quadrupole moment (field-independent basis, Debye-Ang):
   XX=              0.3987   YY=              0.3987   ZZ=             -0.7975
   XY=              0.0000   XZ=              0.0000   YZ=              0.0000
 Octapole moment (field-independent basis, Debye-Ang**2):
  XXX=              0.0000  YYY=              0.0000  ZZZ=            -15.1094  XYY=              0.0000
  XXY=              0.0000  XXZ=             -4.9098  XZZ=              0.0000  YZZ=              0.0000
  YYZ=             -4.9098  XYZ=              0.0000
 Hexadecapole moment (field-independent basis, Debye-Ang**3):
 XXXX=             -3.3175 YYYY=             -3.3175 ZZZZ=            -29.7761 XXXY=              0.0000
 XXXZ=              0.0000 YYYX=              0.0000 YYYZ=              0.0000 ZZZX=              0.0000
 ZZZY=              0.0000 XXYY=             -1.1058 XXZZ=             -5.6466 YYZZ=             -5.6466
 XXYZ=              0.0000 YYXZ=              0.0000 ZZXY=              0.0000
 N-N= 5.013257787663D+00 E-N=-2.503024593049D+02  KE= 9.995897219920D+01
 Leave Link  601 at Sun Sep 07 22:46:38 2025, MaxMem=  2147483648 cpu:               0.0 elap:               0.3
 (Enter C:\G16W\l9999.exe)
 1|1|UNPC-DESKTOP-SI45VP7|SP|RCCSD(T)-FC|CC-pVTZ|F1H1|DOG OF ROMAN|07-S
 ep-2025|0||#p CCSD(T)/ cc-pVTZ scf=(tight,xqc,maxcycle=512) guess=mix 
 nosymm||HF PES scan — UCCSDT/ cc-pVTZ R: 0.95||0,1|H|F,1,0.95||Versi
 on=EM64W-G16RevB.01|HF=-100.0553471|MP2=-100.3287132|MP3=-100.3285112|
 MP4D=-100.3322835|MP4DQ=-100.3295343|MP4SDQ=-100.3311917|CCSD=-100.330
 7141|CCSD(T)=-100.3372367|RMSD=3.183e-009|PG=C*V [C*(H1F1)]||@


 "THE ACADEMIC HIERARCHY"


 THE PRESIDENT:
   LEAPS TALL BUILDINGS IN A SINGLE BOUND,
     IS MORE POWERFUL THAN A LOCOMOTIVE,
       IS FASTER THAN A SPEEDING BULLET,
         WALKS ON WATER,
           GIVES POLICY TO GOD.

 THE VICE PRESIDENT FOR ACADEMIC AFFAIRS:
   LEAPS SHORT BUILDINGS IN A SINGLE BOUND,
     IS MORE POWERFUL THAN A SWITCH ENGINE,
       IS JUST AS FAST AS A SPEEDING BULLET,
         WALKS ON WATER IF SEA IS CALM,
           TALKS WITH GOD.

 PROFESSOR:
   LEAPS SHORT BUILDINGS WITH A RUNNING START AND FAVORABLE WINDS,
     IS ALMOST AS POWERFUL AS A SWITCH ENGINE,
       CAN FIRE A SPEEDING BULLET,
         WALKS ON WATER IN AN INDOOR SWIMMING POOL,
          TALKS WITH GOD IF SPECIAL REQUEST IS APPROVED.

 ASSOCIATE PROFESSOR:
   BARELY CLEARS A QUONSET HUT,
     LOSES TUG OF WAR WITH LOCOMOTIVE,
       MISFIRES FREQUENTLY,
         SWIMS WELL,
           IS OCCASIONALLY ADDRESSED BY GOD.

 ASSISTANT PROFESSOR:
   MAKES HIGH MARKS ON WALLS WHEN TRYING TO LEAP TALL BUILDINGS,
     IS RUN OVER BY LOCOMOTIVES,
       CAN SOMETIMES HANDLE A GUN WITHOUT INFLICTING SELF INJURY,
         DOG PADDLES,
           TALKS TO ANIMALS.

 GRADUATE STUDENT:
   RUNS INTO BUILDINGS,
     RECOGNIZES LOCOMOTIVES TWO OUT OF THREE TIMES,
       IS NOT ISSUED AMMUNITION,
         CAN STAY AFLOAT WITH A LIFE JACKET,
           TALKS TO WALLS.

 UNDERGRADUATE AND WORK STUDY STUDENT:
   FALLS OVER DOORSTEP WHEN TRYING TO ENTER BUILDINGS,
     SAYS, "LOOK AT THE CHOO-CHOO,"
       WETS HIMSELF WITH A WATER PISTOL,
        PLAYS IN MUD PUDDLES,
          MUMBLES TO HIMSELF.

 DEPARTMENT SECRETARY:
   LIFTS TALL BUILDINGS AND WALKS UNDER THEM,
     KICKS LOCOMOTIVES OFF THE TRACKS,
       CATCHES SPEEDING BULLETS IN HER TEETH AND EATS THEM,
         FREEZES WATER WITH A SINGLE GLANCE,
           IS GOD.
 Job cpu time:       0 days  0 hours  0 minutes 10.0 seconds.
 Elapsed time:       0 days  0 hours  0 minutes  9.2 seconds.
 File lengths (MBytes):  RWF=     19 Int=      0 D2E=      0 Chk=      1 Scr=      1
 Normal termination of Gaussian 16 at Sun Sep 07 22:46:39 2025.
