 Entering Link 1 = C:\G16W\l1.exe PID=      4760.
  
 Copyright (c) 1988-2017, Gaussian, Inc.  All Rights Reserved.
  
 This is part of the Gaussian(R) 16 program.  It is based on
 the Gaussian(R) 09 system (copyright 2009, Gaussian, Inc.),
 the Gaussian(R) 03 system (copyright 2003, Gaussian, Inc.),
 the Gaussian(R) 98 system (copyright 1998, Gaussian, Inc.),
 the Gaussian(R) 94 system (copyright 1995, Gaussian, Inc.),
 the Gaussian 92(TM) system (copyright 1992, Gaussian, Inc.),
 the Gaussian 90(TM) system (copyright 1990, Gaussian, Inc.),
 the Gaussian 88(TM) system (copyright 1988, Gaussian, Inc.),
 the Gaussian 86(TM) system (copyright 1986, Carnegie Mellon
 University), and the Gaussian 82(TM) system (copyright 1983,
 Carnegie Mellon University). Gaussian is a federally registered
 trademark of Gaussian, Inc.
  
 This software contains proprietary and confidential information,
 including trade secrets, belonging to Gaussian, Inc.
  
 This software is provided under written license and may be
 used, copied, transmitted, or stored only in accord with that
 written license.
  
 The following legend is applicable only to US Government
 contracts under FAR:
  
                    RESTRICTED RIGHTS LEGEND
  
 Use, reproduction and disclosure by the US Government is
 subject to restrictions as set forth in subparagraphs (a)
 and (c) of the Commercial Computer Software - Restricted
 Rights clause in FAR 52.227-19.
  
 Gaussian, Inc.
 340 Quinnipiac St., Bldg. 40, Wallingford CT 06492
  
  
 ---------------------------------------------------------------
 Warning -- This program may not be used in any manner that
 competes with the business of Gaussian, Inc. or will provide
 assistance to any competitor of Gaussian, Inc.  The licensee
 of this program is prohibited from giving any competitor of
 Gaussian, Inc. access to this program.  By using this program,
 the user acknowledges that Gaussian, Inc. is engaged in the
 business of creating and licensing software in the field of
 computational chemistry and represents and warrants to the
 licensee that it is not a competitor of Gaussian, Inc. and that
 it will not use this program in any manner prohibited above.
 ---------------------------------------------------------------
  

 Cite this work as:
 Gaussian 16, Revision B.01,
 M. J. Frisch, G. W. Trucks, H. B. Schlegel, G. E. Scuseria, 
 M. A. Robb, J. R. Cheeseman, G. Scalmani, V. Barone, 
 G. A. Petersson, H. Nakatsuji, X. Li, M. Caricato, A. V. Marenich, 
 J. Bloino, B. G. Janesko, R. Gomperts, B. Mennucci, H. P. Hratchian, 
 J. V. Ortiz, A. F. Izmaylov, J. L. Sonnenberg, D. Williams-Young, 
 F. Ding, F. Lipparini, F. Egidi, J. Goings, B. Peng, A. Petrone, 
 T. Henderson, D. Ranasinghe, V. G. Zakrzewski, J. Gao, N. Rega, 
 G. Zheng, W. Liang, M. Hada, M. Ehara, K. Toyota, R. Fukuda, 
 J. Hasegawa, M. Ishida, T. Nakajima, Y. Honda, O. Kitao, H. Nakai, 
 T. Vreven, K. Throssell, J. A. Montgomery, Jr., J. E. Peralta, 
 F. Ogliaro, M. J. Bearpark, J. J. Heyd, E. N. Brothers, K. N. Kudin, 
 V. N. Staroverov, T. A. Keith, R. Kobayashi, J. Normand, 
 K. Raghavachari, A. P. Rendell, J. C. Burant, S. S. Iyengar, 
 J. Tomasi, M. Cossi, J. M. Millam, M. Klene, C. Adamo, R. Cammi, 
 J. W. Ochterski, R. L. Martin, K. Morokuma, O. Farkas, 
 J. B. Foresman, and D. J. Fox, Gaussian, Inc., Wallingford CT, 2016.
 
 ******************************************
 Gaussian 16:  EM64W-G16RevB.01 16-Dec-2017
                07-Sep-2025 
 ******************************************
 %chk=HF_UCCSDT_pVTZ_smallscan.chk
 %mem=16GB
 %NProcShared=20
 Will use up to   20 processors via shared memory.
 -----------------------------------------------------------------
 #p CCSD(T)/ cc-pVTZ scf=(tight,xqc,maxcycle=512) guess=mix nosymm
 -----------------------------------------------------------------
 1/38=1,172=1/1;
 2/12=2,15=1,17=6,18=5,40=1/2;
 3/5=16,6=1,11=9,25=1,30=1/1,2,3;
 4/13=-1/1;
 5/5=2,7=512,8=3,13=1,32=2,38=5/2,8;
 8/6=4,9=120000,10=1/1,4;
 9/5=7,14=2/13;
 6/7=2,8=2,9=2,10=2/1;
 99/5=1,9=1/99;
 Leave Link    1 at Sun Sep 07 22:44:34 2025, MaxMem=  2147483648 cpu:               0.0 elap:               0.3
 (Enter C:\G16W\l101.exe)
 ---------------------------------------
 HF PES scan — UCCSDT/ cc-pVTZ R: 0.91
 ---------------------------------------
 Symbolic Z-matrix:
 Charge =  0 Multiplicity = 1
 H
 F                    1    R
       Variables:
  R                     0.91                     
 
 ITRead=  0  0
 MicOpt= -1 -1
 NAtoms=      2 NQM=        2 NQMF=       0 NMMI=      0 NMMIF=      0
                NMic=       0 NMicF=      0.
                    Isotopes and Nuclear Properties:
 (Nuclear quadrupole moments (NQMom) in fm**2, nuclear magnetic moments (NMagM)
  in nuclear magnetons)

  Atom         1           2
 IAtWgt=           1          19
 AtmWgt=   1.0078250  18.9984033
 NucSpn=           1           1
 AtZEff=   0.0000000   0.0000000
 NQMom=    0.0000000   0.0000000
 NMagM=    2.7928460   2.6288670
 AtZNuc=   1.0000000   9.0000000
 Leave Link  101 at Sun Sep 07 22:44:35 2025, MaxMem=  2147483648 cpu:               1.0 elap:               0.4
 (Enter C:\G16W\l202.exe)
                          Input orientation:                          
 ---------------------------------------------------------------------
 Center     Atomic      Atomic             Coordinates (Angstroms)
 Number     Number       Type             X           Y           Z
 ---------------------------------------------------------------------
      1          1           0        0.000000    0.000000    0.000000
      2          9           0        0.000000    0.000000    0.910000
 ---------------------------------------------------------------------
 Symmetry turned off by external request.
 Stoichiometry    FH
 Framework group  C*V[C*(HF)]
 Deg. of freedom     1
 Full point group                 C*V     NOp   4
 Rotational constants (GHZ):           0.0000000         637.6720628         637.6720628
 Leave Link  202 at Sun Sep 07 22:44:35 2025, MaxMem=  2147483648 cpu:               0.0 elap:               0.3
 (Enter C:\G16W\l301.exe)
 Standard basis: CC-pVTZ (5D, 7F)
 Ernie: Thresh=  0.10000D-02 Tol=  0.10000D-05 Strict=F.
 Ernie:  3 primitive shells out of 34 were deleted.
    44 basis functions,    69 primitive gaussians,    50 cartesian basis functions
     5 alpha electrons        5 beta electrons
       nuclear repulsion energy         5.2336207673 Hartrees.
 IExCor=    0 DFT=F Ex=HF Corr=None ExCW=0 ScaHFX=  1.000000
 ScaDFX=  1.000000  1.000000  1.000000  1.000000 ScalE2=  1.000000  1.000000
 IRadAn=      5 IRanWt=     -1 IRanGd=            0 ICorTp=0 IEmpDi=  4
 NAtoms=    2 NActive=    2 NUniq=    2 SFac= 1.00D+00 NAtFMM=   60 NAOKFM=F Big=F
 Integral buffers will be    131072 words long.
 Raffenetti 1 integral format.
 Two-electron integral symmetry is turned off.
 Leave Link  301 at Sun Sep 07 22:44:36 2025, MaxMem=  2147483648 cpu:               1.0 elap:               0.4
 (Enter C:\G16W\l302.exe)
 NPDir=0 NMtPBC=     1 NCelOv=     1 NCel=       1 NClECP=     1 NCelD=      1
         NCelK=      1 NCelE2=     1 NClLst=     1 CellRange=     0.0.
 One-electron integrals computed using PRISM.
 NBasis=    44 RedAO= T EigKep=  3.63D-03  NBF=    44
 NBsUse=    44 1.00D-06 EigRej= -1.00D+00 NBFU=    44
 Leave Link  302 at Sun Sep 07 22:44:36 2025, MaxMem=  2147483648 cpu:               0.0 elap:               0.6
 (Enter C:\G16W\l303.exe)
 DipDrv:  MaxL=1.
 Leave Link  303 at Sun Sep 07 22:44:36 2025, MaxMem=  2147483648 cpu:               0.0 elap:               0.3
 (Enter C:\G16W\l401.exe)
 ExpMin= 1.03D-01 ExpMax= 1.95D+04 ExpMxC= 6.65D+02 IAcc=3 IRadAn=         5 AccDes= 0.00D+00
 Harris functional with IExCor=  205 and IRadAn=       5 diagonalized for initial guess.
 HarFok:  IExCor=  205 AccDes= 0.00D+00 IRadAn=         5 IDoV= 1 UseB2=F ITyADJ=14
 ICtDFT=  3500011 ScaDFX=  1.000000  1.000000  1.000000  1.000000
 FoFCou: FMM=F IPFlag=           0 FMFlag=      100000 FMFlg1=           0
         NFxFlg=           0 DoJE=T BraDBF=F KetDBF=T FulRan=T
         wScrn=  0.000000 ICntrl=       500 IOpCl=  0 I1Cent=   200000004 NGrid=           0
         NMat0=    1 NMatS0=      1 NMatT0=    0 NMatD0=    1 NMtDS0=    0 NMtDT0=    0
 Symmetry not used in FoFCou.
 Harris En= -100.055358668264    
 JPrj=0 DoOrth=F DoCkMO=T.
 Mixing orbitals, IMix= 1 IMixAn=  0 NRI=1 NE=    5 Coef=  7.07106781D-01  7.07106781D-01
 Leave Link  401 at Sun Sep 07 22:44:37 2025, MaxMem=  2147483648 cpu:               0.0 elap:               0.8
 (Enter C:\G16W\l502.exe)
 Keep R1 ints in memory in canonical form, NReq=10216350.
 FoFCou: FMM=F IPFlag=           0 FMFlag=           0 FMFlg1=           0
         NFxFlg=           0 DoJE=F BraDBF=F KetDBF=F FulRan=T
         wScrn=  0.000000 ICntrl=       600 IOpCl=  0 I1Cent=           0 NGrid=           0
         NMat0=    1 NMatS0=    990 NMatT0=    0 NMatD0=    1 NMtDS0=    0 NMtDT0=    0
 Symmetry not used in FoFCou.
 Two-electron integral symmetry not used.
 Closed shell SCF:
 Using DIIS extrapolation, IDIIS=  1040.
 NGot=  2147483648 LenX=  2146986637 LenY=  2146983696
 Requested convergence on RMS density matrix=1.00D-08 within 128 cycles.
 Requested convergence on MAX density matrix=1.00D-06.
 Requested convergence on             energy=1.00D-06.
 No special actions if energy rises.

 Cycle   1  Pass 1  IDiag  1:
 E= -99.5333145314337    
 DIIS: error= 7.57D-02 at cycle   1 NSaved=   1.
 NSaved= 1 IEnMin= 1 EnMin= -99.5333145314337     IErMin= 1 ErrMin= 7.57D-02
 ErrMax= 7.57D-02  0.00D+00 EMaxC= 1.00D-01 BMatC= 2.03D-01 BMatP= 2.03D-01
 IDIUse=3 WtCom= 2.43D-01 WtEn= 7.57D-01
 Coeff-Com:  0.100D+01
 Coeff-En:   0.100D+01
 Coeff:      0.100D+01
 Gap=     0.347 Goal=   None    Shift=    0.000
 GapD=    0.347 DampG=1.000 DampE=0.500 DampFc=0.5000 IDamp=-1.
 Damping current iteration by 5.00D-01
 RMSDP=2.22D-02 MaxDP=5.77D-01              OVMax= 5.09D-01

 Cycle   2  Pass 1  IDiag  1:
 E= -99.7274815354382     Delta-E=       -0.194167004004 Rises=F Damp=T
 DIIS: error= 5.06D-02 at cycle   2 NSaved=   2.
 NSaved= 2 IEnMin= 2 EnMin= -99.7274815354382     IErMin= 2 ErrMin= 5.06D-02
 ErrMax= 5.06D-02  0.00D+00 EMaxC= 1.00D-01 BMatC= 6.56D-02 BMatP= 2.03D-01
 IDIUse=3 WtCom= 4.94D-01 WtEn= 5.06D-01
 Coeff-Com: -0.143D+00 0.114D+01
 Coeff-En:   0.000D+00 0.100D+01
 Coeff:     -0.706D-01 0.107D+01
 Gap=     0.642 Goal=   None    Shift=    0.000
 RMSDP=1.25D-02 MaxDP=3.11D-01 DE=-1.94D-01 OVMax= 6.99D-02

 Cycle   3  Pass 1  IDiag  1:
 E= -100.014355871470     Delta-E=       -0.286874336032 Rises=F Damp=F
 DIIS: error= 2.74D-02 at cycle   3 NSaved=   3.
 NSaved= 3 IEnMin= 3 EnMin= -100.014355871470     IErMin= 3 ErrMin= 2.74D-02
 ErrMax= 2.74D-02  0.00D+00 EMaxC= 1.00D-01 BMatC= 1.56D-02 BMatP= 6.56D-02
 IDIUse=3 WtCom= 7.26D-01 WtEn= 2.74D-01
 Coeff-Com:  0.165D+00-0.465D+00 0.130D+01
 Coeff-En:   0.000D+00 0.000D+00 0.100D+01
 Coeff:      0.120D+00-0.338D+00 0.122D+01
 Gap=     0.732 Goal=   None    Shift=    0.000
 RMSDP=3.78D-03 MaxDP=5.40D-02 DE=-2.87D-01 OVMax= 1.14D-01

 Cycle   4  Pass 1  IDiag  1:
 E= -100.051162728608     Delta-E=       -0.036806857138 Rises=F Damp=F
 DIIS: error= 1.28D-02 at cycle   4 NSaved=   4.
 NSaved= 4 IEnMin= 4 EnMin= -100.051162728608     IErMin= 4 ErrMin= 1.28D-02
 ErrMax= 1.28D-02  0.00D+00 EMaxC= 1.00D-01 BMatC= 2.75D-03 BMatP= 1.56D-02
 IDIUse=3 WtCom= 8.72D-01 WtEn= 1.28D-01
 Coeff-Com: -0.182D+00 0.368D+00-0.546D+00 0.136D+01
 Coeff-En:   0.000D+00 0.000D+00 0.000D+00 0.100D+01
 Coeff:     -0.159D+00 0.321D+00-0.476D+00 0.131D+01
 Gap=     0.784 Goal=   None    Shift=    0.000
 RMSDP=1.57D-03 MaxDP=2.15D-02 DE=-3.68D-02 OVMax= 5.60D-02

 Cycle   5  Pass 1  IDiag  1:
 E= -100.057490785298     Delta-E=       -0.006328056690 Rises=F Damp=F
 DIIS: error= 4.56D-03 at cycle   5 NSaved=   5.
 NSaved= 5 IEnMin= 5 EnMin= -100.057490785298     IErMin= 5 ErrMin= 4.56D-03
 ErrMax= 4.56D-03  0.00D+00 EMaxC= 1.00D-01 BMatC= 2.95D-04 BMatP= 2.75D-03
 IDIUse=3 WtCom= 9.54D-01 WtEn= 4.56D-02
 Coeff-Com:  0.437D-01-0.975D-01 0.807D-02-0.292D+00 0.134D+01
 Coeff-En:   0.000D+00 0.000D+00 0.000D+00 0.000D+00 0.100D+01
 Coeff:      0.417D-01-0.930D-01 0.770D-02-0.279D+00 0.132D+01
 Gap=     0.791 Goal=   None    Shift=    0.000
 RMSDP=6.90D-04 MaxDP=8.53D-03 DE=-6.33D-03 OVMax= 2.55D-02

 Cycle   6  Pass 1  IDiag  1:
 E= -100.058256668800     Delta-E=       -0.000765883502 Rises=F Damp=F
 DIIS: error= 6.91D-04 at cycle   6 NSaved=   6.
 NSaved= 6 IEnMin= 6 EnMin= -100.058256668800     IErMin= 6 ErrMin= 6.91D-04
 ErrMax= 6.91D-04  0.00D+00 EMaxC= 1.00D-01 BMatC= 1.96D-05 BMatP= 2.95D-04
 IDIUse=3 WtCom= 9.93D-01 WtEn= 6.91D-03
 Coeff-Com: -0.203D-02 0.148D-02 0.532D-01-0.504D-01-0.212D+00 0.121D+01
 Coeff-En:   0.000D+00 0.000D+00 0.000D+00 0.000D+00 0.000D+00 0.100D+01
 Coeff:     -0.201D-02 0.147D-02 0.529D-01-0.501D-01-0.211D+00 0.121D+01
 Gap=     0.788 Goal=   None    Shift=    0.000
 RMSDP=7.98D-05 MaxDP=9.33D-04 DE=-7.66D-04 OVMax= 1.78D-03

 Cycle   7  Pass 1  IDiag  1:
 E= -100.058277739936     Delta-E=       -0.000021071136 Rises=F Damp=F
 DIIS: error= 1.28D-04 at cycle   7 NSaved=   7.
 NSaved= 7 IEnMin= 7 EnMin= -100.058277739936     IErMin= 7 ErrMin= 1.28D-04
 ErrMax= 1.28D-04  0.00D+00 EMaxC= 1.00D-01 BMatC= 5.49D-07 BMatP= 1.96D-05
 IDIUse=3 WtCom= 9.99D-01 WtEn= 1.28D-03
 Coeff-Com: -0.145D-02 0.395D-02-0.173D-01 0.286D-01-0.592D-02-0.258D+00
 Coeff-Com:  0.125D+01
 Coeff-En:   0.000D+00 0.000D+00 0.000D+00 0.000D+00 0.000D+00 0.000D+00
 Coeff-En:   0.100D+01
 Coeff:     -0.145D-02 0.395D-02-0.173D-01 0.286D-01-0.591D-02-0.258D+00
 Coeff:      0.125D+01
 Gap=     0.788 Goal=   None    Shift=    0.000
 RMSDP=1.81D-05 MaxDP=2.17D-04 DE=-2.11D-05 OVMax= 6.62D-04

 Cycle   8  Pass 1  IDiag  1:
 E= -100.058278667116     Delta-E=       -0.000000927180 Rises=F Damp=F
 DIIS: error= 2.55D-05 at cycle   8 NSaved=   8.
 NSaved= 8 IEnMin= 8 EnMin= -100.058278667116     IErMin= 8 ErrMin= 2.55D-05
 ErrMax= 2.55D-05  0.00D+00 EMaxC= 1.00D-01 BMatC= 1.65D-08 BMatP= 5.49D-07
 IDIUse=1 WtCom= 1.00D+00 WtEn= 0.00D+00
 Coeff-Com: -0.159D-03 0.343D-03-0.904D-03 0.139D-02 0.115D-02-0.325D-01
 Coeff-Com: -0.129D-01 0.104D+01
 Coeff:     -0.159D-03 0.343D-03-0.904D-03 0.139D-02 0.115D-02-0.325D-01
 Coeff:     -0.129D-01 0.104D+01
 Gap=     0.788 Goal=   None    Shift=    0.000
 RMSDP=2.45D-06 MaxDP=2.05D-05 DE=-9.27D-07 OVMax= 6.81D-05

 Cycle   9  Pass 1  IDiag  1:
 E= -100.058278691074     Delta-E=       -0.000000023957 Rises=F Damp=F
 DIIS: error= 6.17D-06 at cycle   9 NSaved=   9.
 NSaved= 9 IEnMin= 9 EnMin= -100.058278691074     IErMin= 9 ErrMin= 6.17D-06
 ErrMax= 6.17D-06  0.00D+00 EMaxC= 1.00D-01 BMatC= 5.96D-10 BMatP= 1.65D-08
 IDIUse=1 WtCom= 1.00D+00 WtEn= 0.00D+00
 Coeff-Com:  0.798D-06-0.737D-04 0.601D-03-0.822D-03-0.166D-03 0.122D-01
 Coeff-Com: -0.458D-01-0.140D+00 0.117D+01
 Coeff:      0.798D-06-0.737D-04 0.601D-03-0.822D-03-0.166D-03 0.122D-01
 Coeff:     -0.458D-01-0.140D+00 0.117D+01
 Gap=     0.788 Goal=   None    Shift=    0.000
 RMSDP=6.04D-07 MaxDP=5.43D-06 DE=-2.40D-08 OVMax= 1.66D-05

 Cycle  10  Pass 1  IDiag  1:
 E= -100.058278692291     Delta-E=       -0.000000001218 Rises=F Damp=F
 DIIS: error= 1.38D-06 at cycle  10 NSaved=  10.
 NSaved=10 IEnMin=10 EnMin= -100.058278692291     IErMin=10 ErrMin= 1.38D-06
 ErrMax= 1.38D-06  0.00D+00 EMaxC= 1.00D-01 BMatC= 2.81D-11 BMatP= 5.96D-10
 IDIUse=1 WtCom= 1.00D+00 WtEn= 0.00D+00
 Coeff-Com: -0.374D-05 0.141D-04-0.958D-04 0.129D-03-0.727D-04-0.150D-02
 Coeff-Com:  0.932D-02 0.486D-02-0.285D+00 0.127D+01
 Coeff:     -0.374D-05 0.141D-04-0.958D-04 0.129D-03-0.727D-04-0.150D-02
 Coeff:      0.932D-02 0.486D-02-0.285D+00 0.127D+01
 Gap=     0.788 Goal=   None    Shift=    0.000
 RMSDP=1.82D-07 MaxDP=2.86D-06 DE=-1.22D-09 OVMax= 5.69D-06

 Cycle  11  Pass 1  IDiag  1:
 E= -100.058278692360     Delta-E=       -0.000000000068 Rises=F Damp=F
 DIIS: error= 2.38D-07 at cycle  11 NSaved=  11.
 NSaved=11 IEnMin=11 EnMin= -100.058278692360     IErMin=11 ErrMin= 2.38D-07
 ErrMax= 2.38D-07  0.00D+00 EMaxC= 1.00D-01 BMatC= 1.16D-12 BMatP= 2.81D-11
 IDIUse=1 WtCom= 1.00D+00 WtEn= 0.00D+00
 Coeff-Com:  0.878D-07 0.691D-06-0.676D-05 0.172D-04 0.278D-04-0.205D-03
 Coeff-Com:  0.165D-03-0.283D-02 0.507D-01-0.360D+00 0.131D+01
 Coeff:      0.878D-07 0.691D-06-0.676D-05 0.172D-04 0.278D-04-0.205D-03
 Coeff:      0.165D-03-0.283D-02 0.507D-01-0.360D+00 0.131D+01
 Gap=     0.788 Goal=   None    Shift=    0.000
 RMSDP=2.30D-08 MaxDP=2.74D-07 DE=-6.81D-11 OVMax= 8.71D-07

 Cycle  12  Pass 1  IDiag  1:
 E= -100.058278692361     Delta-E=       -0.000000000002 Rises=F Damp=F
 DIIS: error= 2.81D-08 at cycle  12 NSaved=  12.
 NSaved=12 IEnMin=12 EnMin= -100.058278692361     IErMin=12 ErrMin= 2.81D-08
 ErrMax= 2.81D-08  0.00D+00 EMaxC= 1.00D-01 BMatC= 1.30D-14 BMatP= 1.16D-12
 IDIUse=1 WtCom= 1.00D+00 WtEn= 0.00D+00
 Coeff-Com:  0.270D-06-0.757D-06 0.221D-05-0.517D-05 0.846D-07 0.577D-04
 Coeff-Com: -0.165D-03 0.439D-03-0.656D-02 0.645D-01-0.291D+00 0.123D+01
 Coeff:      0.270D-06-0.757D-06 0.221D-05-0.517D-05 0.846D-07 0.577D-04
 Coeff:     -0.165D-03 0.439D-03-0.656D-02 0.645D-01-0.291D+00 0.123D+01
 Gap=     0.788 Goal=   None    Shift=    0.000
 RMSDP=2.49D-09 MaxDP=3.40D-08 DE=-1.86D-12 OVMax= 6.48D-08

 SCF Done:  E(RHF) =  -100.058278692     A.U. after   12 cycles
            NFock= 12  Conv=0.25D-08     -V/T= 2.0002
 KE= 1.000406021313D+02 PE=-2.507562433273D+02 EE= 4.542374173633D+01
 Leave Link  502 at Sun Sep 07 22:44:38 2025, MaxMem=  2147483648 cpu:               1.0 elap:               0.9
 (Enter C:\G16W\l508.exe)
 QCSCF skips out because SCF is already converged.
 Leave Link  508 at Sun Sep 07 22:44:39 2025, MaxMem=  2147483648 cpu:               1.0 elap:               0.3
 (Enter C:\G16W\l801.exe)
 Windowed orbitals will be sorted by symmetry type.
 ExpMin= 1.03D-01 ExpMax= 1.95D+04 ExpMxC= 6.65D+02 IAcc=3 IRadAn=         5 AccDes= 0.00D+00
 HarFok:  IExCor=  205 AccDes= 0.00D+00 IRadAn=         5 IDoV=-2 UseB2=F ITyADJ=14
 ICtDFT= 12500011 ScaDFX=  1.000000  1.000000  1.000000  1.000000
 Largest valence mixing into a core orbital is  9.73D-05
 Largest core mixing into a valence orbital is  1.63D-05
 Range of M.O.s used for correlation:     2    44
 NBasis=    44 NAE=     5 NBE=     5 NFC=     1 NFV=     0
 NROrb=     43 NOA=     4 NOB=     4 NVA=    39 NVB=    39
 Leave Link  801 at Sun Sep 07 22:44:39 2025, MaxMem=  2147483648 cpu:               0.0 elap:               0.4
 (Enter C:\G16W\l804.exe)
 Closed-shell transformation, MDV=  2147483648 ITran=4 ISComp=1.
 Unit  1 TFree=          2705 TCopy=        143576.
 Semi-Direct transformation.
 ModeAB=           2 MOrb=             4 LenV=    2147225625
 LASXX=       145335 LTotXX=      145335 LenRXX=      145335
 LTotAB=      155476 MaxLAS=      219300 LenRXY=      219300
 NonZer=      290670 LenScr=      871424 LnRSAI=           0
 LnScr1=           0 LExtra=           0 Total=      1236059
 MaxDsk=          -1 SrtSym=           F ITran=            4
 DoSDTr:  NPSUse= 20
 JobTyp=0 Pass  1:  I=   1 to   4.
 (rs|ai) integrals will be sorted in core.
 Complete sort for first half transformation.
 First half transformation complete.
 Complete sort for second half transformation.
 Second half transformation complete.
 Spin components of T(2) and E(2):
     alpha-alpha T2 =       0.6438693293D-02 E2=     -0.3464943973D-01
     alpha-beta  T2 =       0.3565454503D-01 E2=     -0.2021350513D+00
     beta-beta   T2 =       0.6438693293D-02 E2=     -0.3464943973D-01
 ANorm=    0.1023978482D+01
 E2 =    -0.2714339307D+00 EUMP2 =    -0.10032971262307D+03
 Leave Link  804 at Sun Sep 07 22:44:40 2025, MaxMem=  2147483648 cpu:               1.0 elap:               0.5
 (Enter C:\G16W\l913.exe)
 CIDS:  MDV=  2147483648.
 Frozen-core window:  NFC=   1 NFV=   0.
 IFCWin=0 IBDFC=1 NFBD=     0     0 NFCmp=     0     0 NFFFC=     0     0
 Using DD3R+UMP44R for 1st iteration.
 Using DD4RQ for 2nd and later iterations.
 Keep R2 and R3 ints in memory in canonical form, NReq=10709641.
 FoFCou: FMM=F IPFlag=           0 FMFlag=           0 FMFlg1=           0
         NFxFlg=           0 DoJE=F BraDBF=F KetDBF=F FulRan=T
         wScrn=  0.000000 ICntrl=       600 IOpCl=  0 I1Cent=           0 NGrid=           0
         NMat0=    1 NMatS0=    990 NMatT0=    0 NMatD0=    1 NMtDS0=    0 NMtDT0=    0
 Symmetry not used in FoFCou.
 Two-electron integral symmetry not used.
 CIDS: In Core Option IDoMem=           1.
 CCSD(T)
 =======
 Iterations=  50 Convergence= 0.100D-06
 Produce multiple copies of IABC intergrals
 Iteration Nr.   1
 **********************
 DD1Dir will call FoFMem   1 times, MxPair=        20
 NAB=    10 NAA=     0 NBB=     0.
 MP4(R+Q)=  0.26732799D-02
 Maximum subspace dimension=  5
 A-vector RMS=  3.2062183D-03 Max=  7.8357062D-03 conv= 1.00D-05.
 RLE energy=       -0.2690121744
 E3=       -0.27409493D-03        EUMP3=      -0.10032998672D+03
 E4(DQ)=   -0.88782478D-03        UMP4(DQ)=   -0.10033087454D+03
 E4(SDQ)=  -0.24250161D-02        UMP4(SDQ)=  -0.10033241173D+03
 VARIATIONAL ENERGIES WITH THE FIRST-ORDER WAVEFUNCTION:
 DE(Corr)= -0.26899038     E(Corr)=     -100.32726907    
 NORM(A)=   0.10234206D+01
 Iteration Nr.   2
 **********************
 DD1Dir will call FoFMem   1 times, MxPair=        20
 NAB=    10 NAA=     0 NBB=     0.
 A-vector RMS=  2.6283222D-04 Max=  2.6602426D-03 conv= 1.00D-05.
 RLE energy=       -0.2734754897
 DE(Corr)= -0.27318437     E(CORR)=     -100.33146306     Delta=-4.19D-03
 NORM(A)=   0.10246677D+01
 Iteration Nr.   3
 **********************
 DD1Dir will call FoFMem   1 times, MxPair=        20
 NAB=    10 NAA=     0 NBB=     0.
 A-vector RMS=  2.7447542D-04 Max=  8.4284059D-04 conv= 1.00D-05.
 RLE energy=       -0.2736621553
 DE(Corr)= -0.27344987     E(CORR)=     -100.33172856     Delta=-2.65D-04
 NORM(A)=   0.10248502D+01
 Iteration Nr.   4
 **********************
 DD1Dir will call FoFMem   1 times, MxPair=        20
 NAB=    10 NAA=     0 NBB=     0.
 A-vector RMS=  4.2420206D-05 Max=  1.8233523D-04 conv= 1.00D-05.
 RLE energy=       -0.2736798780
 DE(Corr)= -0.27366874     E(CORR)=     -100.33194743     Delta=-2.19D-04
 NORM(A)=   0.10248880D+01
 Iteration Nr.   5
 **********************
 DD1Dir will call FoFMem   1 times, MxPair=        20
 NAB=    10 NAA=     0 NBB=     0.
 A-vector RMS=  1.4709614D-05 Max=  7.0380952D-05 conv= 1.00D-05.
 RLE energy=       -0.2736844280
 DE(Corr)= -0.27368288     E(CORR)=     -100.33196158     Delta=-1.41D-05
 NORM(A)=   0.10248918D+01
 Iteration Nr.   6
 **********************
 DD1Dir will call FoFMem   1 times, MxPair=        20
 NAB=    10 NAA=     0 NBB=     0.
 A-vector RMS=  3.0923967D-06 Max=  1.4728146D-05 conv= 1.00D-05.
 RLE energy=       -0.2736829404
 DE(Corr)= -0.27368376     E(CORR)=     -100.33196246     Delta=-8.81D-07
 NORM(A)=   0.10248917D+01
 Iteration Nr.   7
 **********************
 DD1Dir will call FoFMem   1 times, MxPair=        20
 NAB=    10 NAA=     0 NBB=     0.
 A-vector RMS=  1.3450640D-06 Max=  6.9381969D-06 conv= 1.00D-05.
 RLE energy=       -0.2736838290
 DE(Corr)= -0.27368379     E(CORR)=     -100.33196248     Delta=-2.48D-08
 NORM(A)=   0.10248920D+01
 CI/CC converged in    7 iterations to DelEn=-2.48D-08 Conv= 1.00D-07 ErrA1= 1.35D-06 Conv= 1.00D-05
 Wavefunction amplitudes converged. E(Corr)=     -100.33196248    
 Largest amplitude= 3.95D-02
 T4(AAA)= -0.15565738D-03
 T4(AAB)= -0.31269755D-02
 T5(AAA)=  0.75423040D-05
 T5(AAB)=  0.10830406D-03
 Time for triples=        0.00 seconds.
 T4(CCSD)= -0.65652658D-02
 T5(CCSD)=  0.23169273D-03
 CCSD(T)= -0.10033829605D+03
 Discarding MO integrals.
 Leave Link  913 at Sun Sep 07 22:44:43 2025, MaxMem=  2147483648 cpu:               3.0 elap:               3.3
 (Enter C:\G16W\l601.exe)
 Copying SCF densities to generalized density rwf, IOpCl= 0 IROHF=0.

 **********************************************************************

            Population analysis using the SCF Density.

 **********************************************************************

 Alpha  occ. eigenvalues --  -26.28617  -1.59685  -0.76314  -0.64396  -0.64396
 Alpha virt. eigenvalues --    0.14410   0.56674   0.81494   0.85461   0.85461
 Alpha virt. eigenvalues --    0.98807   0.98807   1.44923   1.55226   2.22857
 Alpha virt. eigenvalues --    2.22857   2.27457   2.53877   2.53877   3.21915
 Alpha virt. eigenvalues --    3.54689   3.54689   3.85323   3.85323   4.24290
 Alpha virt. eigenvalues --    4.30856   4.30856   5.15565   5.35800   5.35800
 Alpha virt. eigenvalues --    6.24483   7.40972   7.40972   7.60586   7.60586
 Alpha virt. eigenvalues --    8.46536   8.46536   8.51167   8.90902   8.90902
 Alpha virt. eigenvalues --    9.33392   9.33392   9.69408  12.54926
          Condensed to atoms (all electrons):
               1          2
     1  H    0.327577   0.327865
     2  F    0.327865   9.016693
 Mulliken charges:
               1
     1  H    0.344558
     2  F   -0.344558
 Sum of Mulliken charges =   0.00000
 Mulliken charges with hydrogens summed into heavy atoms:
               1
     2  F    0.000000
 Electronic spatial extent (au):  <R**2>=             39.7778
 Charge=              0.0000 electrons
 Dipole moment (field-independent basis, Debye):
    X=              0.0000    Y=              0.0000    Z=             -1.9277  Tot=              1.9277
 Quadrupole moment (field-independent basis, Debye-Ang):
   XX=             -5.5392   YY=             -5.5392   ZZ=             -6.6263
   XY=              0.0000   XZ=              0.0000   YZ=              0.0000
 Traceless Quadrupole moment (field-independent basis, Debye-Ang):
   XX=              0.3624   YY=              0.3624   ZZ=             -0.7247
   XY=              0.0000   XZ=              0.0000   YZ=              0.0000
 Octapole moment (field-independent basis, Debye-Ang**2):
  XXX=              0.0000  YYY=              0.0000  ZZZ=            -14.3428  XYY=              0.0000
  XXY=              0.0000  XXZ=             -4.6888  XZZ=              0.0000  YZZ=              0.0000
  YYZ=             -4.6888  XYZ=              0.0000
 Hexadecapole moment (field-independent basis, Debye-Ang**3):
 XXXX=             -3.2770 YYYY=             -3.2770 ZZZZ=            -27.3926 XXXY=              0.0000
 XXXZ=              0.0000 YYYX=              0.0000 YYYZ=              0.0000 ZZZX=              0.0000
 ZZZY=              0.0000 XXYY=             -1.0923 XXZZ=             -5.2452 YYZZ=             -5.2452
 XXYZ=              0.0000 YYXZ=              0.0000 ZZXY=              0.0000
 N-N= 5.233620767341D+00 E-N=-2.507562428893D+02  KE= 1.000406021313D+02
 Leave Link  601 at Sun Sep 07 22:44:43 2025, MaxMem=  2147483648 cpu:               0.0 elap:               0.4
 (Enter C:\G16W\l9999.exe)
 1|1|UNPC-DESKTOP-SI45VP7|SP|RCCSD(T)-FC|CC-pVTZ|F1H1|DOG OF ROMAN|07-S
 ep-2025|0||#p CCSD(T)/ cc-pVTZ scf=(tight,xqc,maxcycle=512) guess=mix 
 nosymm||HF PES scan — UCCSDT/ cc-pVTZ R: 0.91||0,1|H|F,1,0.91||Versi
 on=EM64W-G16RevB.01|HF=-100.0582787|MP2=-100.3297126|MP3=-100.3299867|
 MP4D=-100.3335478|MP4DQ=-100.3308745|MP4SDQ=-100.3324117|CCSD=-100.331
 9625|CCSD(T)=-100.3382961|RMSD=2.486e-009|PG=C*V [C*(H1F1)]||@


 THE UNDERLYING PHYSICAL LAWS NECESSARY FOR THE 
 MATHEMATICAL THEORY OF A LARGE PART OF PHYSICS AND THE
 WHOLE OF CHEMISTRY ARE THUS COMPLETELY KNOWN, AND THE
 DIFFICULTY IS ONLY THAT THE EXACT APPLICATION OF THESE
 LAWS LEADS TO EQUATIONS MUCH TOO COMPLICATED 
 TO BE SOLUBLE.

                                        -- P. A. M. DIRAC, 1929
 Job cpu time:       0 days  0 hours  0 minutes 10.0 seconds.
 Elapsed time:       0 days  0 hours  0 minutes  9.2 seconds.
 File lengths (MBytes):  RWF=     19 Int=      0 D2E=      0 Chk=      1 Scr=      1
 Normal termination of Gaussian 16 at Sun Sep 07 22:44:44 2025.
