 Entering Link 1 = C:\G16W\l1.exe PID=     35708.
  
 Copyright (c) 1988-2017, Gaussian, Inc.  All Rights Reserved.
  
 This is part of the Gaussian(R) 16 program.  It is based on
 the Gaussian(R) 09 system (copyright 2009, Gaussian, Inc.),
 the Gaussian(R) 03 system (copyright 2003, Gaussian, Inc.),
 the Gaussian(R) 98 system (copyright 1998, Gaussian, Inc.),
 the Gaussian(R) 94 system (copyright 1995, Gaussian, Inc.),
 the Gaussian 92(TM) system (copyright 1992, Gaussian, Inc.),
 the Gaussian 90(TM) system (copyright 1990, Gaussian, Inc.),
 the Gaussian 88(TM) system (copyright 1988, Gaussian, Inc.),
 the Gaussian 86(TM) system (copyright 1986, Carnegie Mellon
 University), and the Gaussian 82(TM) system (copyright 1983,
 Carnegie Mellon University). Gaussian is a federally registered
 trademark of Gaussian, Inc.
  
 This software contains proprietary and confidential information,
 including trade secrets, belonging to Gaussian, Inc.
  
 This software is provided under written license and may be
 used, copied, transmitted, or stored only in accord with that
 written license.
  
 The following legend is applicable only to US Government
 contracts under FAR:
  
                    RESTRICTED RIGHTS LEGEND
  
 Use, reproduction and disclosure by the US Government is
 subject to restrictions as set forth in subparagraphs (a)
 and (c) of the Commercial Computer Software - Restricted
 Rights clause in FAR 52.227-19.
  
 Gaussian, Inc.
 340 Quinnipiac St., Bldg. 40, Wallingford CT 06492
  
  
 ---------------------------------------------------------------
 Warning -- This program may not be used in any manner that
 competes with the business of Gaussian, Inc. or will provide
 assistance to any competitor of Gaussian, Inc.  The licensee
 of this program is prohibited from giving any competitor of
 Gaussian, Inc. access to this program.  By using this program,
 the user acknowledges that Gaussian, Inc. is engaged in the
 business of creating and licensing software in the field of
 computational chemistry and represents and warrants to the
 licensee that it is not a competitor of Gaussian, Inc. and that
 it will not use this program in any manner prohibited above.
 ---------------------------------------------------------------
  

 Cite this work as:
 Gaussian 16, Revision B.01,
 M. J. Frisch, G. W. Trucks, H. B. Schlegel, G. E. Scuseria, 
 M. A. Robb, J. R. Cheeseman, G. Scalmani, V. Barone, 
 G. A. Petersson, H. Nakatsuji, X. Li, M. Caricato, A. V. Marenich, 
 J. Bloino, B. G. Janesko, R. Gomperts, B. Mennucci, H. P. Hratchian, 
 J. V. Ortiz, A. F. Izmaylov, J. L. Sonnenberg, D. Williams-Young, 
 F. Ding, F. Lipparini, F. Egidi, J. Goings, B. Peng, A. Petrone, 
 T. Henderson, D. Ranasinghe, V. G. Zakrzewski, J. Gao, N. Rega, 
 G. Zheng, W. Liang, M. Hada, M. Ehara, K. Toyota, R. Fukuda, 
 J. Hasegawa, M. Ishida, T. Nakajima, Y. Honda, O. Kitao, H. Nakai, 
 T. Vreven, K. Throssell, J. A. Montgomery, Jr., J. E. Peralta, 
 F. Ogliaro, M. J. Bearpark, J. J. Heyd, E. N. Brothers, K. N. Kudin, 
 V. N. Staroverov, T. A. Keith, R. Kobayashi, J. Normand, 
 K. Raghavachari, A. P. Rendell, J. C. Burant, S. S. Iyengar, 
 J. Tomasi, M. Cossi, J. M. Millam, M. Klene, C. Adamo, R. Cammi, 
 J. W. Ochterski, R. L. Martin, K. Morokuma, O. Farkas, 
 J. B. Foresman, and D. J. Fox, Gaussian, Inc., Wallingford CT, 2016.
 
 ******************************************
 Gaussian 16:  EM64W-G16RevB.01 16-Dec-2017
                07-Sep-2025 
 ******************************************
 %chk=HF_UCCSDT_pVTZ_smallscan.chk
 %mem=16GB
 %NProcShared=20
 Will use up to   20 processors via shared memory.
 -----------------------------------------------------------------
 #p CCSD(T)/ cc-pVTZ scf=(tight,xqc,maxcycle=512) guess=mix nosymm
 -----------------------------------------------------------------
 1/38=1,172=1/1;
 2/12=2,15=1,17=6,18=5,40=1/2;
 3/5=16,6=1,11=9,25=1,30=1/1,2,3;
 4/13=-1/1;
 5/5=2,7=512,8=3,13=1,32=2,38=5/2,8;
 8/6=4,9=120000,10=1/1,4;
 9/5=7,14=2/13;
 6/7=2,8=2,9=2,10=2/1;
 99/5=1,9=1/99;
 Leave Link    1 at Sun Sep 07 22:43:53 2025, MaxMem=  2147483648 cpu:               1.0 elap:               0.3
 (Enter C:\G16W\l101.exe)
 ---------------------------------------
 HF PES scan — UCCSDT/ cc-pVTZ R: 0.90
 ---------------------------------------
 Symbolic Z-matrix:
 Charge =  0 Multiplicity = 1
 H
 F                    1    R
       Variables:
  R                     0.9                      
 
 ITRead=  0  0
 MicOpt= -1 -1
 NAtoms=      2 NQM=        2 NQMF=       0 NMMI=      0 NMMIF=      0
                NMic=       0 NMicF=      0.
                    Isotopes and Nuclear Properties:
 (Nuclear quadrupole moments (NQMom) in fm**2, nuclear magnetic moments (NMagM)
  in nuclear magnetons)

  Atom         1           2
 IAtWgt=           1          19
 AtmWgt=   1.0078250  18.9984033
 NucSpn=           1           1
 AtZEff=   0.0000000   0.0000000
 NQMom=    0.0000000   0.0000000
 NMagM=    2.7928460   2.6288670
 AtZNuc=   1.0000000   9.0000000
 Leave Link  101 at Sun Sep 07 22:43:53 2025, MaxMem=  2147483648 cpu:               0.0 elap:               0.4
 (Enter C:\G16W\l202.exe)
                          Input orientation:                          
 ---------------------------------------------------------------------
 Center     Atomic      Atomic             Coordinates (Angstroms)
 Number     Number       Type             X           Y           Z
 ---------------------------------------------------------------------
      1          1           0        0.000000    0.000000    0.000000
      2          9           0        0.000000    0.000000    0.900000
 ---------------------------------------------------------------------
 Symmetry turned off by external request.
 Stoichiometry    FH
 Framework group  C*V[C*(HF)]
 Deg. of freedom     1
 Full point group                 C*V     NOp   4
 Rotational constants (GHZ):           0.0000000         651.9212781         651.9212781
 Leave Link  202 at Sun Sep 07 22:43:53 2025, MaxMem=  2147483648 cpu:               0.0 elap:               0.3
 (Enter C:\G16W\l301.exe)
 Standard basis: CC-pVTZ (5D, 7F)
 Ernie: Thresh=  0.10000D-02 Tol=  0.10000D-05 Strict=F.
 Ernie:  3 primitive shells out of 34 were deleted.
    44 basis functions,    69 primitive gaussians,    50 cartesian basis functions
     5 alpha electrons        5 beta electrons
       nuclear repulsion energy         5.2917721092 Hartrees.
 IExCor=    0 DFT=F Ex=HF Corr=None ExCW=0 ScaHFX=  1.000000
 ScaDFX=  1.000000  1.000000  1.000000  1.000000 ScalE2=  1.000000  1.000000
 IRadAn=      5 IRanWt=     -1 IRanGd=            0 ICorTp=0 IEmpDi=  4
 NAtoms=    2 NActive=    2 NUniq=    2 SFac= 1.00D+00 NAtFMM=   60 NAOKFM=F Big=F
 Integral buffers will be    131072 words long.
 Raffenetti 1 integral format.
 Two-electron integral symmetry is turned off.
 Leave Link  301 at Sun Sep 07 22:43:54 2025, MaxMem=  2147483648 cpu:               1.0 elap:               0.3
 (Enter C:\G16W\l302.exe)
 NPDir=0 NMtPBC=     1 NCelOv=     1 NCel=       1 NClECP=     1 NCelD=      1
         NCelK=      1 NCelE2=     1 NClLst=     1 CellRange=     0.0.
 One-electron integrals computed using PRISM.
 NBasis=    44 RedAO= T EigKep=  3.46D-03  NBF=    44
 NBsUse=    44 1.00D-06 EigRej= -1.00D+00 NBFU=    44
 Leave Link  302 at Sun Sep 07 22:43:54 2025, MaxMem=  2147483648 cpu:               0.0 elap:               0.5
 (Enter C:\G16W\l303.exe)
 DipDrv:  MaxL=1.
 Leave Link  303 at Sun Sep 07 22:43:55 2025, MaxMem=  2147483648 cpu:               1.0 elap:               0.4
 (Enter C:\G16W\l401.exe)
 ExpMin= 1.03D-01 ExpMax= 1.95D+04 ExpMxC= 6.65D+02 IAcc=3 IRadAn=         5 AccDes= 0.00D+00
 Harris functional with IExCor=  205 and IRadAn=       5 diagonalized for initial guess.
 HarFok:  IExCor=  205 AccDes= 0.00D+00 IRadAn=         5 IDoV= 1 UseB2=F ITyADJ=14
 ICtDFT=  3500011 ScaDFX=  1.000000  1.000000  1.000000  1.000000
 FoFCou: FMM=F IPFlag=           0 FMFlag=      100000 FMFlg1=           0
         NFxFlg=           0 DoJE=T BraDBF=F KetDBF=T FulRan=T
         wScrn=  0.000000 ICntrl=       500 IOpCl=  0 I1Cent=   200000004 NGrid=           0
         NMat0=    1 NMatS0=      1 NMatT0=    0 NMatD0=    1 NMtDS0=    0 NMtDT0=    0
 Symmetry not used in FoFCou.
 Harris En= -100.054818427245    
 JPrj=0 DoOrth=F DoCkMO=T.
 Mixing orbitals, IMix= 1 IMixAn=  0 NRI=1 NE=    5 Coef=  7.07106781D-01  7.07106781D-01
 Leave Link  401 at Sun Sep 07 22:43:55 2025, MaxMem=  2147483648 cpu:               0.0 elap:               0.6
 (Enter C:\G16W\l502.exe)
 Keep R1 ints in memory in canonical form, NReq=10216350.
 FoFCou: FMM=F IPFlag=           0 FMFlag=           0 FMFlg1=           0
         NFxFlg=           0 DoJE=F BraDBF=F KetDBF=F FulRan=T
         wScrn=  0.000000 ICntrl=       600 IOpCl=  0 I1Cent=           0 NGrid=           0
         NMat0=    1 NMatS0=    990 NMatT0=    0 NMatD0=    1 NMtDS0=    0 NMtDT0=    0
 Symmetry not used in FoFCou.
 Two-electron integral symmetry not used.
 Closed shell SCF:
 Using DIIS extrapolation, IDIIS=  1040.
 NGot=  2147483648 LenX=  2146986637 LenY=  2146983696
 Requested convergence on RMS density matrix=1.00D-08 within 128 cycles.
 Requested convergence on MAX density matrix=1.00D-06.
 Requested convergence on             energy=1.00D-06.
 No special actions if energy rises.

 Cycle   1  Pass 1  IDiag  1:
 E= -99.5288726056305    
 DIIS: error= 7.34D-02 at cycle   1 NSaved=   1.
 NSaved= 1 IEnMin= 1 EnMin= -99.5288726056305     IErMin= 1 ErrMin= 7.34D-02
 ErrMax= 7.34D-02  0.00D+00 EMaxC= 1.00D-01 BMatC= 2.05D-01 BMatP= 2.05D-01
 IDIUse=3 WtCom= 2.66D-01 WtEn= 7.34D-01
 Coeff-Com:  0.100D+01
 Coeff-En:   0.100D+01
 Coeff:      0.100D+01
 Gap=     0.346 Goal=   None    Shift=    0.000
 GapD=    0.346 DampG=1.000 DampE=0.500 DampFc=0.5000 IDamp=-1.
 Damping current iteration by 5.00D-01
 RMSDP=2.26D-02 MaxDP=5.91D-01              OVMax= 5.11D-01

 Cycle   2  Pass 1  IDiag  1:
 E= -99.7255475452414     Delta-E=       -0.196674939611 Rises=F Damp=T
 DIIS: error= 4.91D-02 at cycle   2 NSaved=   2.
 NSaved= 2 IEnMin= 2 EnMin= -99.7255475452414     IErMin= 2 ErrMin= 4.91D-02
 ErrMax= 4.91D-02  0.00D+00 EMaxC= 1.00D-01 BMatC= 6.61D-02 BMatP= 2.05D-01
 IDIUse=3 WtCom= 5.09D-01 WtEn= 4.91D-01
 Coeff-Com: -0.144D+00 0.114D+01
 Coeff-En:   0.000D+00 0.100D+01
 Coeff:     -0.734D-01 0.107D+01
 Gap=     0.645 Goal=   None    Shift=    0.000
 RMSDP=1.27D-02 MaxDP=3.18D-01 DE=-1.97D-01 OVMax= 7.05D-02

 Cycle   3  Pass 1  IDiag  1:
 E= -100.015314099452     Delta-E=       -0.289766554211 Rises=F Damp=F
 DIIS: error= 2.65D-02 at cycle   3 NSaved=   3.
 NSaved= 3 IEnMin= 3 EnMin= -100.015314099452     IErMin= 3 ErrMin= 2.65D-02
 ErrMax= 2.65D-02  0.00D+00 EMaxC= 1.00D-01 BMatC= 1.55D-02 BMatP= 6.61D-02
 IDIUse=3 WtCom= 7.35D-01 WtEn= 2.65D-01
 Coeff-Com:  0.164D+00-0.466D+00 0.130D+01
 Coeff-En:   0.000D+00 0.000D+00 0.100D+01
 Coeff:      0.120D+00-0.342D+00 0.122D+01
 Gap=     0.736 Goal=   None    Shift=    0.000
 RMSDP=3.78D-03 MaxDP=5.27D-02 DE=-2.90D-01 OVMax= 1.13D-01

 Cycle   4  Pass 1  IDiag  1:
 E= -100.051662204976     Delta-E=       -0.036348105524 Rises=F Damp=F
 DIIS: error= 1.22D-02 at cycle   4 NSaved=   4.
 NSaved= 4 IEnMin= 4 EnMin= -100.051662204976     IErMin= 4 ErrMin= 1.22D-02
 ErrMax= 1.22D-02  0.00D+00 EMaxC= 1.00D-01 BMatC= 2.68D-03 BMatP= 1.55D-02
 IDIUse=3 WtCom= 8.78D-01 WtEn= 1.22D-01
 Coeff-Com: -0.179D+00 0.363D+00-0.533D+00 0.135D+01
 Coeff-En:   0.000D+00 0.000D+00 0.000D+00 0.100D+01
 Coeff:     -0.157D+00 0.319D+00-0.468D+00 0.131D+01
 Gap=     0.787 Goal=   None    Shift=    0.000
 RMSDP=1.54D-03 MaxDP=2.05D-02 DE=-3.63D-02 OVMax= 5.46D-02

 Cycle   5  Pass 1  IDiag  1:
 E= -100.057718709961     Delta-E=       -0.006056504985 Rises=F Damp=F
 DIIS: error= 4.32D-03 at cycle   5 NSaved=   5.
 NSaved= 5 IEnMin= 5 EnMin= -100.057718709961     IErMin= 5 ErrMin= 4.32D-03
 ErrMax= 4.32D-03  0.00D+00 EMaxC= 1.00D-01 BMatC= 2.81D-04 BMatP= 2.68D-03
 IDIUse=3 WtCom= 9.57D-01 WtEn= 4.32D-02
 Coeff-Com:  0.428D-01-0.955D-01 0.725D-02-0.286D+00 0.133D+01
 Coeff-En:   0.000D+00 0.000D+00 0.000D+00 0.000D+00 0.100D+01
 Coeff:      0.409D-01-0.913D-01 0.694D-02-0.274D+00 0.132D+01
 Gap=     0.794 Goal=   None    Shift=    0.000
 RMSDP=6.70D-04 MaxDP=8.09D-03 DE=-6.06D-03 OVMax= 2.46D-02

 Cycle   6  Pass 1  IDiag  1:
 E= -100.058436334316     Delta-E=       -0.000717624356 Rises=F Damp=F
 DIIS: error= 6.72D-04 at cycle   6 NSaved=   6.
 NSaved= 6 IEnMin= 6 EnMin= -100.058436334316     IErMin= 6 ErrMin= 6.72D-04
 ErrMax= 6.72D-04  0.00D+00 EMaxC= 1.00D-01 BMatC= 1.83D-05 BMatP= 2.81D-04
 IDIUse=3 WtCom= 9.93D-01 WtEn= 6.72D-03
 Coeff-Com: -0.197D-02 0.153D-02 0.511D-01-0.488D-01-0.208D+00 0.121D+01
 Coeff-En:   0.000D+00 0.000D+00 0.000D+00 0.000D+00 0.000D+00 0.100D+01
 Coeff:     -0.196D-02 0.152D-02 0.508D-01-0.485D-01-0.207D+00 0.120D+01
 Gap=     0.791 Goal=   None    Shift=    0.000
 RMSDP=7.73D-05 MaxDP=9.00D-04 DE=-7.18D-04 OVMax= 1.71D-03

 Cycle   7  Pass 1  IDiag  1:
 E= -100.058455839764     Delta-E=       -0.000019505448 Rises=F Damp=F
 DIIS: error= 1.19D-04 at cycle   7 NSaved=   7.
 NSaved= 7 IEnMin= 7 EnMin= -100.058455839764     IErMin= 7 ErrMin= 1.19D-04
 ErrMax= 1.19D-04  0.00D+00 EMaxC= 1.00D-01 BMatC= 4.99D-07 BMatP= 1.83D-05
 IDIUse=3 WtCom= 9.99D-01 WtEn= 1.19D-03
 Coeff-Com: -0.137D-02 0.375D-02-0.165D-01 0.275D-01-0.561D-02-0.259D+00
 Coeff-Com:  0.125D+01
 Coeff-En:   0.000D+00 0.000D+00 0.000D+00 0.000D+00 0.000D+00 0.000D+00
 Coeff-En:   0.100D+01
 Coeff:     -0.137D-02 0.374D-02-0.165D-01 0.275D-01-0.560D-02-0.259D+00
 Coeff:      0.125D+01
 Gap=     0.791 Goal=   None    Shift=    0.000
 RMSDP=1.71D-05 MaxDP=1.99D-04 DE=-1.95D-05 OVMax= 6.20D-04

 Cycle   8  Pass 1  IDiag  1:
 E= -100.058456676895     Delta-E=       -0.000000837132 Rises=F Damp=F
 DIIS: error= 2.33D-05 at cycle   8 NSaved=   8.
 NSaved= 8 IEnMin= 8 EnMin= -100.058456676895     IErMin= 8 ErrMin= 2.33D-05
 ErrMax= 2.33D-05  0.00D+00 EMaxC= 1.00D-01 BMatC= 1.42D-08 BMatP= 4.99D-07
 IDIUse=1 WtCom= 1.00D+00 WtEn= 0.00D+00
 Coeff-Com: -0.155D-03 0.335D-03-0.866D-03 0.136D-02 0.920D-03-0.310D-01
 Coeff-Com: -0.143D-01 0.104D+01
 Coeff:     -0.155D-03 0.335D-03-0.866D-03 0.136D-02 0.920D-03-0.310D-01
 Coeff:     -0.143D-01 0.104D+01
 Gap=     0.791 Goal=   None    Shift=    0.000
 RMSDP=2.29D-06 MaxDP=1.87D-05 DE=-8.37D-07 OVMax= 6.42D-05

 Cycle   9  Pass 1  IDiag  1:
 E= -100.058456697532     Delta-E=       -0.000000020637 Rises=F Damp=F
 DIIS: error= 5.67D-06 at cycle   9 NSaved=   9.
 NSaved= 9 IEnMin= 9 EnMin= -100.058456697532     IErMin= 9 ErrMin= 5.67D-06
 ErrMax= 5.67D-06  0.00D+00 EMaxC= 1.00D-01 BMatC= 5.17D-10 BMatP= 1.42D-08
 IDIUse=1 WtCom= 1.00D+00 WtEn= 0.00D+00
 Coeff-Com: -0.857D-06-0.666D-04 0.569D-03-0.786D-03-0.167D-03 0.120D-01
 Coeff-Com: -0.455D-01-0.132D+00 0.117D+01
 Coeff:     -0.857D-06-0.666D-04 0.569D-03-0.786D-03-0.167D-03 0.120D-01
 Coeff:     -0.455D-01-0.132D+00 0.117D+01
 Gap=     0.791 Goal=   None    Shift=    0.000
 RMSDP=5.63D-07 MaxDP=4.94D-06 DE=-2.06D-08 OVMax= 1.54D-05

 Cycle  10  Pass 1  IDiag  1:
 E= -100.058456698568     Delta-E=       -0.000000001035 Rises=F Damp=F
 DIIS: error= 1.32D-06 at cycle  10 NSaved=  10.
 NSaved=10 IEnMin=10 EnMin= -100.058456698568     IErMin=10 ErrMin= 1.32D-06
 ErrMax= 1.32D-06  0.00D+00 EMaxC= 1.00D-01 BMatC= 2.47D-11 BMatP= 5.17D-10
 IDIUse=1 WtCom= 1.00D+00 WtEn= 0.00D+00
 Coeff-Com: -0.391D-05 0.140D-04-0.908D-04 0.122D-03-0.678D-04-0.154D-02
 Coeff-Com:  0.932D-02 0.523D-02-0.286D+00 0.127D+01
 Coeff:     -0.391D-05 0.140D-04-0.908D-04 0.122D-03-0.678D-04-0.154D-02
 Coeff:      0.932D-02 0.523D-02-0.286D+00 0.127D+01
 Gap=     0.791 Goal=   None    Shift=    0.000
 RMSDP=1.69D-07 MaxDP=2.59D-06 DE=-1.04D-09 OVMax= 5.28D-06

 Cycle  11  Pass 1  IDiag  1:
 E= -100.058456698627     Delta-E=       -0.000000000059 Rises=F Damp=F
 DIIS: error= 2.28D-07 at cycle  11 NSaved=  11.
 NSaved=11 IEnMin=11 EnMin= -100.058456698627     IErMin=11 ErrMin= 2.28D-07
 ErrMax= 2.28D-07  0.00D+00 EMaxC= 1.00D-01 BMatC= 1.01D-12 BMatP= 2.47D-11
 IDIUse=1 WtCom= 1.00D+00 WtEn= 0.00D+00
 Coeff-Com:  0.450D-07 0.732D-06-0.651D-05 0.171D-04 0.244D-04-0.184D-03
 Coeff-Com:  0.131D-03-0.301D-02 0.511D-01-0.363D+00 0.132D+01
 Coeff:      0.450D-07 0.732D-06-0.651D-05 0.171D-04 0.244D-04-0.184D-03
 Coeff:      0.131D-03-0.301D-02 0.511D-01-0.363D+00 0.132D+01
 Gap=     0.791 Goal=   None    Shift=    0.000
 RMSDP=2.14D-08 MaxDP=2.50D-07 DE=-5.88D-11 OVMax= 8.06D-07

 Cycle  12  Pass 1  IDiag  1:
 E= -100.058456698628     Delta-E=       -0.000000000002 Rises=F Damp=F
 DIIS: error= 2.51D-08 at cycle  12 NSaved=  12.
 NSaved=12 IEnMin=12 EnMin= -100.058456698628     IErMin=12 ErrMin= 2.51D-08
 ErrMax= 2.51D-08  0.00D+00 EMaxC= 1.00D-01 BMatC= 1.10D-14 BMatP= 1.01D-12
 IDIUse=1 WtCom= 1.00D+00 WtEn= 0.00D+00
 Coeff-Com:  0.244D-06-0.687D-06 0.200D-05-0.482D-05 0.422D-06 0.521D-04
 Coeff-Com: -0.152D-03 0.459D-03-0.644D-02 0.635D-01-0.285D+00 0.123D+01
 Coeff:      0.244D-06-0.687D-06 0.200D-05-0.482D-05 0.422D-06 0.521D-04
 Coeff:     -0.152D-03 0.459D-03-0.644D-02 0.635D-01-0.285D+00 0.123D+01
 Gap=     0.791 Goal=   None    Shift=    0.000
 RMSDP=2.28D-09 MaxDP=2.88D-08 DE=-1.88D-12 OVMax= 5.86D-08

 SCF Done:  E(RHF) =  -100.058456699     A.U. after   12 cycles
            NFock= 12  Conv=0.23D-08     -V/T= 2.0000
 KE= 1.000631600724D+02 PE=-2.508762186163D+02 EE= 4.546282973598D+01
 Leave Link  502 at Sun Sep 07 22:43:57 2025, MaxMem=  2147483648 cpu:               2.0 elap:               1.2
 (Enter C:\G16W\l508.exe)
 QCSCF skips out because SCF is already converged.
 Leave Link  508 at Sun Sep 07 22:43:57 2025, MaxMem=  2147483648 cpu:               0.0 elap:               0.3
 (Enter C:\G16W\l801.exe)
 Windowed orbitals will be sorted by symmetry type.
 ExpMin= 1.03D-01 ExpMax= 1.95D+04 ExpMxC= 6.65D+02 IAcc=3 IRadAn=         5 AccDes= 0.00D+00
 HarFok:  IExCor=  205 AccDes= 0.00D+00 IRadAn=         5 IDoV=-2 UseB2=F ITyADJ=14
 ICtDFT= 12500011 ScaDFX=  1.000000  1.000000  1.000000  1.000000
 Largest valence mixing into a core orbital is  9.71D-05
 Largest core mixing into a valence orbital is  1.62D-05
 Range of M.O.s used for correlation:     2    44
 NBasis=    44 NAE=     5 NBE=     5 NFC=     1 NFV=     0
 NROrb=     43 NOA=     4 NOB=     4 NVA=    39 NVB=    39
 Leave Link  801 at Sun Sep 07 22:43:57 2025, MaxMem=  2147483648 cpu:               0.0 elap:               0.4
 (Enter C:\G16W\l804.exe)
 Closed-shell transformation, MDV=  2147483648 ITran=4 ISComp=1.
 Unit  1 TFree=          2705 TCopy=        143576.
 Semi-Direct transformation.
 ModeAB=           2 MOrb=             4 LenV=    2147225625
 LASXX=       145335 LTotXX=      145335 LenRXX=      145335
 LTotAB=      155476 MaxLAS=      219300 LenRXY=      219300
 NonZer=      290670 LenScr=      871424 LnRSAI=           0
 LnScr1=           0 LExtra=           0 Total=      1236059
 MaxDsk=          -1 SrtSym=           F ITran=            4
 DoSDTr:  NPSUse= 20
 JobTyp=0 Pass  1:  I=   1 to   4.
 (rs|ai) integrals will be sorted in core.
 Complete sort for first half transformation.
 First half transformation complete.
 Complete sort for second half transformation.
 Second half transformation complete.
 Spin components of T(2) and E(2):
     alpha-alpha T2 =       0.6400465032D-02 E2=     -0.3459302831D-01
     alpha-beta  T2 =       0.3539199273D-01 E2=     -0.2017615508D+00
     beta-beta   T2 =       0.6400465032D-02 E2=     -0.3459302831D-01
 ANorm=    0.1023812933D+01
 E2 =    -0.2709476074D+00 EUMP2 =    -0.10032940430602D+03
 Leave Link  804 at Sun Sep 07 22:43:58 2025, MaxMem=  2147483648 cpu:               1.0 elap:               0.5
 (Enter C:\G16W\l913.exe)
 CIDS:  MDV=  2147483648.
 Frozen-core window:  NFC=   1 NFV=   0.
 IFCWin=0 IBDFC=1 NFBD=     0     0 NFCmp=     0     0 NFFFC=     0     0
 Using DD3R+UMP44R for 1st iteration.
 Using DD4RQ for 2nd and later iterations.
 Keep R2 and R3 ints in memory in canonical form, NReq=10709641.
 FoFCou: FMM=F IPFlag=           0 FMFlag=           0 FMFlg1=           0
         NFxFlg=           0 DoJE=F BraDBF=F KetDBF=F FulRan=T
         wScrn=  0.000000 ICntrl=       600 IOpCl=  0 I1Cent=           0 NGrid=           0
         NMat0=    1 NMatS0=    990 NMatT0=    0 NMatD0=    1 NMtDS0=    0 NMtDT0=    0
 Symmetry not used in FoFCou.
 Two-electron integral symmetry not used.
 CIDS: In Core Option IDoMem=           1.
 CCSD(T)
 =======
 Iterations=  50 Convergence= 0.100D-06
 Produce multiple copies of IABC intergrals
 Iteration Nr.   1
 **********************
 DD1Dir will call FoFMem   1 times, MxPair=        20
 NAB=    10 NAA=     0 NBB=     0.
 MP4(R+Q)=  0.26556303D-02
 Maximum subspace dimension=  5
 A-vector RMS=  3.1625551D-03 Max=  7.7434329D-03 conv= 1.00D-05.
 RLE energy=       -0.2686616617
 E3=       -0.39349366D-03        EUMP3=      -0.10032979780D+03
 E4(DQ)=   -0.85485983D-03        UMP4(DQ)=   -0.10033065266D+03
 E4(SDQ)=  -0.23634278D-02        UMP4(SDQ)=  -0.10033216123D+03
 VARIATIONAL ENERGIES WITH THE FIRST-ORDER WAVEFUNCTION:
 DE(Corr)= -0.26864222     E(Corr)=     -100.32709892    
 NORM(A)=   0.10232743D+01
 Iteration Nr.   2
 **********************
 DD1Dir will call FoFMem   1 times, MxPair=        20
 NAB=    10 NAA=     0 NBB=     0.
 A-vector RMS=  2.5772081D-04 Max=  2.5805087D-03 conv= 1.00D-05.
 RLE energy=       -0.2730607611
 DE(Corr)= -0.27277246     E(CORR)=     -100.33122916     Delta=-4.13D-03
 NORM(A)=   0.10244918D+01
 Iteration Nr.   3
 **********************
 DD1Dir will call FoFMem   1 times, MxPair=        20
 NAB=    10 NAA=     0 NBB=     0.
 A-vector RMS=  2.6532073D-04 Max=  7.9902235D-04 conv= 1.00D-05.
 RLE energy=       -0.2732417260
 DE(Corr)= -0.27303610     E(CORR)=     -100.33149279     Delta=-2.64D-04
 NORM(A)=   0.10246665D+01
 Iteration Nr.   4
 **********************
 DD1Dir will call FoFMem   1 times, MxPair=        20
 NAB=    10 NAA=     0 NBB=     0.
 A-vector RMS=  4.1110092D-05 Max=  1.7459640D-04 conv= 1.00D-05.
 RLE energy=       -0.2732586844
 DE(Corr)= -0.27324807     E(CORR)=     -100.33170476     Delta=-2.12D-04
 NORM(A)=   0.10247022D+01
 Iteration Nr.   5
 **********************
 DD1Dir will call FoFMem   1 times, MxPair=        20
 NAB=    10 NAA=     0 NBB=     0.
 A-vector RMS=  1.3803960D-05 Max=  6.5649116D-05 conv= 1.00D-05.
 RLE energy=       -0.2732630222
 DE(Corr)= -0.27326157     E(CORR)=     -100.33171827     Delta=-1.35D-05
 NORM(A)=   0.10247056D+01
 Iteration Nr.   6
 **********************
 DD1Dir will call FoFMem   1 times, MxPair=        20
 NAB=    10 NAA=     0 NBB=     0.
 A-vector RMS=  2.8247656D-06 Max=  1.3371190D-05 conv= 1.00D-05.
 RLE energy=       -0.2732616365
 DE(Corr)= -0.27326239     E(CORR)=     -100.33171909     Delta=-8.25D-07
 NORM(A)=   0.10247055D+01
 Iteration Nr.   7
 **********************
 DD1Dir will call FoFMem   1 times, MxPair=        20
 NAB=    10 NAA=     0 NBB=     0.
 A-vector RMS=  1.2489680D-06 Max=  6.4637296D-06 conv= 1.00D-05.
 RLE energy=       -0.2732624525
 DE(Corr)= -0.27326242     E(CORR)=     -100.33171911     Delta=-2.10D-08
 NORM(A)=   0.10247057D+01
 CI/CC converged in    7 iterations to DelEn=-2.10D-08 Conv= 1.00D-07 ErrA1= 1.25D-06 Conv= 1.00D-05
 Wavefunction amplitudes converged. E(Corr)=     -100.33171911    
 Largest amplitude= 3.88D-02
 T4(AAA)= -0.15503344D-03
 T4(AAB)= -0.31020928D-02
 T5(AAA)=  0.74127037D-05
 T5(AAB)=  0.10610169D-03
 Time for triples=        1.00 seconds.
 T4(CCSD)= -0.65142525D-02
 T5(CCSD)=  0.22702878D-03
 CCSD(T)= -0.10033800634D+03
 Discarding MO integrals.
 Leave Link  913 at Sun Sep 07 22:44:02 2025, MaxMem=  2147483648 cpu:               4.0 elap:               3.6
 (Enter C:\G16W\l601.exe)
 Copying SCF densities to generalized density rwf, IOpCl= 0 IROHF=0.

 **********************************************************************

            Population analysis using the SCF Density.

 **********************************************************************

 Alpha  occ. eigenvalues --  -26.28597  -1.60056  -0.76714  -0.64501  -0.64501
 Alpha virt. eigenvalues --    0.14565   0.57353   0.81207   0.85846   0.85846
 Alpha virt. eigenvalues --    0.98607   0.98607   1.45692   1.55369   2.22743
 Alpha virt. eigenvalues --    2.22743   2.26102   2.54574   2.54574   3.23432
 Alpha virt. eigenvalues --    3.55342   3.55342   3.85316   3.85316   4.25154
 Alpha virt. eigenvalues --    4.32341   4.32341   5.20591   5.36565   5.36565
 Alpha virt. eigenvalues --    6.23549   7.40869   7.40869   7.61634   7.61634
 Alpha virt. eigenvalues --    8.50291   8.50291   8.52770   8.90943   8.90943
 Alpha virt. eigenvalues --    9.33735   9.33735   9.70368  12.65375
          Condensed to atoms (all electrons):
               1          2
     1  H    0.329660   0.330927
     2  F    0.330927   9.008486
 Mulliken charges:
               1
     1  H    0.339413
     2  F   -0.339413
 Sum of Mulliken charges =   0.00000
 Mulliken charges with hydrogens summed into heavy atoms:
               1
     2  F    0.000000
 Electronic spatial extent (au):  <R**2>=             39.1550
 Charge=              0.0000 electrons
 Dipole moment (field-independent basis, Debye):
    X=              0.0000    Y=              0.0000    Z=             -1.9085  Tot=              1.9085
 Quadrupole moment (field-independent basis, Debye-Ang):
   XX=             -5.5296   YY=             -5.5296   ZZ=             -6.5902
   XY=              0.0000   XZ=              0.0000   YZ=              0.0000
 Traceless Quadrupole moment (field-independent basis, Debye-Ang):
   XX=              0.3536   YY=              0.3536   ZZ=             -0.7071
   XY=              0.0000   XZ=              0.0000   YZ=              0.0000
 Octapole moment (field-independent basis, Debye-Ang**2):
  XXX=              0.0000  YYY=              0.0000  ZZZ=            -14.1533  XYY=              0.0000
  XXY=              0.0000  XXZ=             -4.6337  XZZ=              0.0000  YZZ=              0.0000
  YYZ=             -4.6337  XYZ=              0.0000
 Hexadecapole moment (field-independent basis, Debye-Ang**3):
 XXXX=             -3.2669 YYYY=             -3.2669 ZZZZ=            -26.8154 XXXY=              0.0000
 XXXZ=              0.0000 YYYX=              0.0000 YYYZ=              0.0000 ZZZX=              0.0000
 ZZZY=              0.0000 XXYY=             -1.0890 XXZZ=             -5.1477 YYZZ=             -5.1477
 XXYZ=              0.0000 YYXZ=              0.0000 ZZXY=              0.0000
 N-N= 5.291772109200D+00 E-N=-2.508762181958D+02  KE= 1.000631600724D+02
 Leave Link  601 at Sun Sep 07 22:44:02 2025, MaxMem=  2147483648 cpu:               0.0 elap:               0.4
 (Enter C:\G16W\l9999.exe)
 1|1|UNPC-DESKTOP-SI45VP7|SP|RCCSD(T)-FC|CC-pVTZ|F1H1|DOG OF ROMAN|07-S
 ep-2025|0||#p CCSD(T)/ cc-pVTZ scf=(tight,xqc,maxcycle=512) guess=mix 
 nosymm||HF PES scan — UCCSDT/ cc-pVTZ R: 0.90||0,1|H|F,1,0.9||Versio
 n=EM64W-G16RevB.01|HF=-100.0584567|MP2=-100.3294043|MP3=-100.3297978|M
 P4D=-100.3333083|MP4DQ=-100.3306527|MP4SDQ=-100.3321612|CCSD=-100.3317
 191|CCSD(T)=-100.3380063|RMSD=2.281e-009|PG=C*V [C*(H1F1)]||@


 CLIMB THE MOUNTAINS AND GET THEIR GOOD TIDINGS.
 NATURE'S PEACE WILL FLOW INTO YOU AS SUNSHINE FLOWS INTO TREES.
 THE WINDS WILL BLOW THEIR OWN FRESHNESS INTO YOU, 
 AND CARES WILL DROP OFF LIKE AUTUMN LEAVES.

                                         -- JOHN MUIR
 Job cpu time:       0 days  0 hours  0 minutes 10.0 seconds.
 Elapsed time:       0 days  0 hours  0 minutes  9.6 seconds.
 File lengths (MBytes):  RWF=     19 Int=      0 D2E=      0 Chk=      1 Scr=      1
 Normal termination of Gaussian 16 at Sun Sep 07 22:44:02 2025.
