 Entering Link 1 = C:\G16W\l1.exe PID=     64548.
  
 Copyright (c) 1988-2017, Gaussian, Inc.  All Rights Reserved.
  
 This is part of the Gaussian(R) 16 program.  It is based on
 the Gaussian(R) 09 system (copyright 2009, Gaussian, Inc.),
 the Gaussian(R) 03 system (copyright 2003, Gaussian, Inc.),
 the Gaussian(R) 98 system (copyright 1998, Gaussian, Inc.),
 the Gaussian(R) 94 system (copyright 1995, Gaussian, Inc.),
 the Gaussian 92(TM) system (copyright 1992, Gaussian, Inc.),
 the Gaussian 90(TM) system (copyright 1990, Gaussian, Inc.),
 the Gaussian 88(TM) system (copyright 1988, Gaussian, Inc.),
 the Gaussian 86(TM) system (copyright 1986, Carnegie Mellon
 University), and the Gaussian 82(TM) system (copyright 1983,
 Carnegie Mellon University). Gaussian is a federally registered
 trademark of Gaussian, Inc.
  
 This software contains proprietary and confidential information,
 including trade secrets, belonging to Gaussian, Inc.
  
 This software is provided under written license and may be
 used, copied, transmitted, or stored only in accord with that
 written license.
  
 The following legend is applicable only to US Government
 contracts under FAR:
  
                    RESTRICTED RIGHTS LEGEND
  
 Use, reproduction and disclosure by the US Government is
 subject to restrictions as set forth in subparagraphs (a)
 and (c) of the Commercial Computer Software - Restricted
 Rights clause in FAR 52.227-19.
  
 Gaussian, Inc.
 340 Quinnipiac St., Bldg. 40, Wallingford CT 06492
  
  
 ---------------------------------------------------------------
 Warning -- This program may not be used in any manner that
 competes with the business of Gaussian, Inc. or will provide
 assistance to any competitor of Gaussian, Inc.  The licensee
 of this program is prohibited from giving any competitor of
 Gaussian, Inc. access to this program.  By using this program,
 the user acknowledges that Gaussian, Inc. is engaged in the
 business of creating and licensing software in the field of
 computational chemistry and represents and warrants to the
 licensee that it is not a competitor of Gaussian, Inc. and that
 it will not use this program in any manner prohibited above.
 ---------------------------------------------------------------
  

 Cite this work as:
 Gaussian 16, Revision B.01,
 M. J. Frisch, G. W. Trucks, H. B. Schlegel, G. E. Scuseria, 
 M. A. Robb, J. R. Cheeseman, G. Scalmani, V. Barone, 
 G. A. Petersson, H. Nakatsuji, X. Li, M. Caricato, A. V. Marenich, 
 J. Bloino, B. G. Janesko, R. Gomperts, B. Mennucci, H. P. Hratchian, 
 J. V. Ortiz, A. F. Izmaylov, J. L. Sonnenberg, D. Williams-Young, 
 F. Ding, F. Lipparini, F. Egidi, J. Goings, B. Peng, A. Petrone, 
 T. Henderson, D. Ranasinghe, V. G. Zakrzewski, J. Gao, N. Rega, 
 G. Zheng, W. Liang, M. Hada, M. Ehara, K. Toyota, R. Fukuda, 
 J. Hasegawa, M. Ishida, T. Nakajima, Y. Honda, O. Kitao, H. Nakai, 
 T. Vreven, K. Throssell, J. A. Montgomery, Jr., J. E. Peralta, 
 F. Ogliaro, M. J. Bearpark, J. J. Heyd, E. N. Brothers, K. N. Kudin, 
 V. N. Staroverov, T. A. Keith, R. Kobayashi, J. Normand, 
 K. Raghavachari, A. P. Rendell, J. C. Burant, S. S. Iyengar, 
 J. Tomasi, M. Cossi, J. M. Millam, M. Klene, C. Adamo, R. Cammi, 
 J. W. Ochterski, R. L. Martin, K. Morokuma, O. Farkas, 
 J. B. Foresman, and D. J. Fox, Gaussian, Inc., Wallingford CT, 2016.
 
 ******************************************
 Gaussian 16:  EM64W-G16RevB.01 16-Dec-2017
                04-Sep-2025 
 ******************************************
 %chk=HF_R_RVAL.chk
 %nprocshared=20
 Will use up to   20 processors via shared memory.
 %mem=32GB
 ----------------------------------------------
 #p UCCSD/cc-pVTZ Integral=SuperFineGrid nosymm
 ----------------------------------------------
 1/38=1,172=1/1;
 2/12=2,15=1,17=6,18=5,40=1/2;
 3/5=16,6=1,11=2,25=1,30=1,75=-7,116=2/1,2,3;
 4//1;
 5/5=2,38=5/2;
 8/6=4,9=120000,10=1/1,4;
 9/5=7/13;
 6/7=2,8=2,9=2,10=2/1;
 99/5=1,9=1/99;
 Leave Link    1 at Thu Sep 04 20:43:27 2025, MaxMem=  4294967296 cpu:               0.0 elap:               0.3
 (Enter C:\G16W\l101.exe)
 ---------------------------
 H-F UHF single point R=RVAL
 ---------------------------
 Symbolic Z-matrix:
 Charge =  0 Multiplicity = 1
 H                     0.        0.        0. 
 F                     0.        0.        0.5 
 
 ITRead=  0  0
 MicOpt= -1 -1
 NAtoms=      2 NQM=        2 NQMF=       0 NMMI=      0 NMMIF=      0
                NMic=       0 NMicF=      0.
                    Isotopes and Nuclear Properties:
 (Nuclear quadrupole moments (NQMom) in fm**2, nuclear magnetic moments (NMagM)
  in nuclear magnetons)

  Atom         1           2
 IAtWgt=           1          19
 AtmWgt=   1.0078250  18.9984033
 NucSpn=           1           1
 AtZEff=   0.0000000   0.0000000
 NQMom=    0.0000000   0.0000000
 NMagM=    2.7928460   2.6288670
 AtZNuc=   1.0000000   9.0000000
 Leave Link  101 at Thu Sep 04 20:43:27 2025, MaxMem=  4294967296 cpu:               0.0 elap:               0.4
 (Enter C:\G16W\l202.exe)
                          Input orientation:                          
 ---------------------------------------------------------------------
 Center     Atomic      Atomic             Coordinates (Angstroms)
 Number     Number       Type             X           Y           Z
 ---------------------------------------------------------------------
      1          1           0        0.000000    0.000000    0.000000
      2          9           0        0.000000    0.000000    0.500000
 ---------------------------------------------------------------------
 Symmetry turned off by external request.
 Stoichiometry    FH
 Framework group  C*V[C*(HF)]
 Deg. of freedom     1
 Full point group                 C*V     NOp   4
 Rotational constants (GHZ):           0.0000000        2112.2249410        2112.2249410
 Leave Link  202 at Thu Sep 04 20:43:28 2025, MaxMem=  4294967296 cpu:               1.0 elap:               0.3
 (Enter C:\G16W\l301.exe)
 Standard basis: CC-pVTZ (5D, 7F)
 Ernie: Thresh=  0.10000D-02 Tol=  0.10000D-05 Strict=F.
 Ernie:  3 primitive shells out of 34 were deleted.
    44 basis functions,    69 primitive gaussians,    50 cartesian basis functions
     5 alpha electrons        5 beta electrons
       nuclear repulsion energy         9.5251897966 Hartrees.
 IExCor=    0 DFT=F Ex=HF Corr=None ExCW=0 ScaHFX=  1.000000
 ScaDFX=  1.000000  1.000000  1.000000  1.000000 ScalE2=  1.000000  1.000000
 IRadAn=      7 IRanWt=     -1 IRanGd=            0 ICorTp=0 IEmpDi=  4
 NAtoms=    2 NActive=    2 NUniq=    2 SFac= 1.00D+00 NAtFMM=   60 NAOKFM=F Big=F
 Integral buffers will be    131072 words long.
 Raffenetti 2 integral format.
 Two-electron integral symmetry is turned off.
 Leave Link  301 at Thu Sep 04 20:43:28 2025, MaxMem=  4294967296 cpu:               0.0 elap:               0.3
 (Enter C:\G16W\l302.exe)
 NPDir=0 NMtPBC=     1 NCelOv=     1 NCel=       1 NClECP=     1 NCelD=      1
         NCelK=      1 NCelE2=     1 NClLst=     1 CellRange=     0.0.
 One-electron integrals computed using PRISM.
 NBasis=    44 RedAO= T EigKep=  3.74D-04  NBF=    44
 NBsUse=    44 1.00D-06 EigRej= -1.00D+00 NBFU=    44
 Leave Link  302 at Thu Sep 04 20:43:29 2025, MaxMem=  4294967296 cpu:               1.0 elap:               0.4
 (Enter C:\G16W\l303.exe)
 DipDrv:  MaxL=1.
 Leave Link  303 at Thu Sep 04 20:43:29 2025, MaxMem=  4294967296 cpu:               0.0 elap:               0.3
 (Enter C:\G16W\l401.exe)
 ExpMin= 1.03D-01 ExpMax= 1.95D+04 ExpMxC= 6.65D+02 IAcc=3 IRadAn=         7 AccDes= 0.00D+00
 Harris functional with IExCor=  205 and IRadAn=       7 diagonalized for initial guess.
 HarFok:  IExCor=  205 AccDes= 0.00D+00 IRadAn=         7 IDoV= 1 UseB2=F ITyADJ=14
 ICtDFT=  3500011 ScaDFX=  1.000000  1.000000  1.000000  1.000000
 FoFCou: FMM=F IPFlag=           0 FMFlag=      100000 FMFlg1=           0
         NFxFlg=           0 DoJE=T BraDBF=F KetDBF=T FulRan=T
         wScrn=  0.000000 ICntrl=       500 IOpCl=  0 I1Cent=   200000004 NGrid=           0
         NMat0=    1 NMatS0=      1 NMatT0=    0 NMatD0=    1 NMtDS0=    0 NMtDT0=    0
 Symmetry not used in FoFCou.
 Harris En= -99.4332635393606    
 JPrj=0 DoOrth=F DoCkMO=F.
 Initial guess <Sx>= 0.0000 <Sy>= 0.0000 <Sz>= 0.0000 <S**2>= 0.0000 S= 0.0000
 Leave Link  401 at Thu Sep 04 20:43:30 2025, MaxMem=  4294967296 cpu:               1.0 elap:               0.8
 (Enter C:\G16W\l502.exe)
 Keep R1 and R2 ints in memory in canonical form, NReq=10707235.
 FoFCou: FMM=F IPFlag=           0 FMFlag=           0 FMFlg1=           0
         NFxFlg=           0 DoJE=F BraDBF=F KetDBF=F FulRan=T
         wScrn=  0.000000 ICntrl=       600 IOpCl=  0 I1Cent=           0 NGrid=           0
         NMat0=    1 NMatS0=    990 NMatT0=    0 NMatD0=    1 NMtDS0=    0 NMtDT0=    0
 Symmetry not used in FoFCou.
 Two-electron integral symmetry not used.
 UHF open shell SCF:
 Using DIIS extrapolation, IDIIS=  1040.
 NGot=  4294967296 LenX=  4293979740 LenY=  4293976799
 Requested convergence on RMS density matrix=1.00D-08 within 128 cycles.
 Requested convergence on MAX density matrix=1.00D-06.
 Requested convergence on             energy=1.00D-06.
 No special actions if energy rises.

 Cycle   1  Pass 1  IDiag  1:
 E= -99.2704353120900    
 DIIS: error= 7.44D-02 at cycle   1 NSaved=   1.
 NSaved= 1 IEnMin= 1 EnMin= -99.2704353120900     IErMin= 1 ErrMin= 7.44D-02
 ErrMax= 7.44D-02  0.00D+00 EMaxC= 1.00D-01 BMatC= 1.24D+00 BMatP= 1.24D+00
 IDIUse=3 WtCom= 2.56D-01 WtEn= 7.44D-01
 Coeff-Com:  0.100D+01
 Coeff-En:   0.100D+01
 Coeff:      0.100D+01
 Gap=     0.720 Goal=   None    Shift=    0.000
 Gap=     0.720 Goal=   None    Shift=    0.000
 GapD=    0.720 DampG=2.000 DampE=0.500 DampFc=1.0000 IDamp=-1.
 RMSDP=5.15D-03 MaxDP=5.94D-02              OVMax= 1.08D-01

 Cycle   2  Pass 1  IDiag  1:
 E= -99.3556116588833     Delta-E=       -0.085176346793 Rises=F Damp=F
 DIIS: error= 3.17D-02 at cycle   2 NSaved=   2.
 NSaved= 2 IEnMin= 2 EnMin= -99.3556116588833     IErMin= 2 ErrMin= 3.17D-02
 ErrMax= 3.17D-02  0.00D+00 EMaxC= 1.00D-01 BMatC= 2.32D-01 BMatP= 1.24D+00
 IDIUse=3 WtCom= 6.83D-01 WtEn= 3.17D-01
 Coeff-Com:  0.279D+00 0.721D+00
 Coeff-En:   0.000D+00 0.100D+01
 Coeff:      0.190D+00 0.810D+00
 Gap=     0.908 Goal=   None    Shift=    0.000
 Gap=     0.908 Goal=   None    Shift=    0.000
 RMSDP=2.15D-03 MaxDP=2.44D-02 DE=-8.52D-02 OVMax= 4.10D-02

 Cycle   3  Pass 1  IDiag  1:
 E= -99.3783403781849     Delta-E=       -0.022728719302 Rises=F Damp=F
 DIIS: error= 6.87D-03 at cycle   3 NSaved=   3.
 NSaved= 3 IEnMin= 3 EnMin= -99.3783403781849     IErMin= 3 ErrMin= 6.87D-03
 ErrMax= 6.87D-03  0.00D+00 EMaxC= 1.00D-01 BMatC= 1.04D-02 BMatP= 2.32D-01
 IDIUse=3 WtCom= 9.31D-01 WtEn= 6.87D-02
 Coeff-Com: -0.171D-01 0.150D+00 0.867D+00
 Coeff-En:   0.000D+00 0.000D+00 0.100D+01
 Coeff:     -0.159D-01 0.139D+00 0.876D+00
 Gap=     0.876 Goal=   None    Shift=    0.000
 Gap=     0.876 Goal=   None    Shift=    0.000
 RMSDP=3.83D-04 MaxDP=5.15D-03 DE=-2.27D-02 OVMax= 7.65D-03

 Cycle   4  Pass 1  IDiag  1:
 E= -99.3793955742568     Delta-E=       -0.001055196072 Rises=F Damp=F
 DIIS: error= 3.68D-04 at cycle   4 NSaved=   4.
 NSaved= 4 IEnMin= 4 EnMin= -99.3793955742568     IErMin= 4 ErrMin= 3.68D-04
 ErrMax= 3.68D-04  0.00D+00 EMaxC= 1.00D-01 BMatC= 1.40D-05 BMatP= 1.04D-02
 IDIUse=3 WtCom= 9.96D-01 WtEn= 3.68D-03
 Coeff-Com: -0.108D-02-0.945D-02-0.725D-02 0.102D+01
 Coeff-En:   0.000D+00 0.000D+00 0.000D+00 0.100D+01
 Coeff:     -0.108D-02-0.942D-02-0.723D-02 0.102D+01
 Gap=     0.877 Goal=   None    Shift=    0.000
 Gap=     0.877 Goal=   None    Shift=    0.000
 RMSDP=6.08D-05 MaxDP=8.64D-04 DE=-1.06D-03 OVMax= 6.18D-04

 Cycle   5  Pass 1  IDiag  1:
 E= -99.3793978816624     Delta-E=       -0.000002307406 Rises=F Damp=F
 DIIS: error= 5.31D-05 at cycle   5 NSaved=   5.
 NSaved= 5 IEnMin= 5 EnMin= -99.3793978816624     IErMin= 5 ErrMin= 5.31D-05
 ErrMax= 5.31D-05  0.00D+00 EMaxC= 1.00D-01 BMatC= 4.00D-07 BMatP= 1.40D-05
 IDIUse=1 WtCom= 1.00D+00 WtEn= 0.00D+00
 Coeff-Com:  0.759D-03-0.398D-02-0.287D-01-0.138D+00 0.117D+01
 Coeff:      0.759D-03-0.398D-02-0.287D-01-0.138D+00 0.117D+01
 Gap=     0.877 Goal=   None    Shift=    0.000
 Gap=     0.877 Goal=   None    Shift=    0.000
 RMSDP=1.73D-05 MaxDP=2.77D-04 DE=-2.31D-06 OVMax= 1.80D-04

 Cycle   6  Pass 1  IDiag  1:
 E= -99.3793979946533     Delta-E=       -0.000000112991 Rises=F Damp=F
 DIIS: error= 1.27D-05 at cycle   6 NSaved=   6.
 NSaved= 6 IEnMin= 6 EnMin= -99.3793979946533     IErMin= 6 ErrMin= 1.27D-05
 ErrMax= 1.27D-05  0.00D+00 EMaxC= 1.00D-01 BMatC= 7.12D-09 BMatP= 4.00D-07
 IDIUse=1 WtCom= 1.00D+00 WtEn= 0.00D+00
 Coeff-Com: -0.682D-04 0.543D-03 0.397D-02 0.753D-02-0.185D+00 0.117D+01
 Coeff:     -0.682D-04 0.543D-03 0.397D-02 0.753D-02-0.185D+00 0.117D+01
 Gap=     0.877 Goal=   None    Shift=    0.000
 Gap=     0.877 Goal=   None    Shift=    0.000
 RMSDP=1.27D-06 MaxDP=1.63D-05 DE=-1.13D-07 OVMax= 2.23D-05

 Cycle   7  Pass 1  IDiag  1:
 E= -99.3793979962248     Delta-E=       -0.000000001572 Rises=F Damp=F
 DIIS: error= 4.95D-07 at cycle   7 NSaved=   7.
 NSaved= 7 IEnMin= 7 EnMin= -99.3793979962248     IErMin= 7 ErrMin= 4.95D-07
 ErrMax= 4.95D-07  0.00D+00 EMaxC= 1.00D-01 BMatC= 4.86D-11 BMatP= 7.12D-09
 IDIUse=1 WtCom= 1.00D+00 WtEn= 0.00D+00
 Coeff-Com:  0.415D-05-0.561D-04-0.442D-03 0.657D-03 0.190D-01-0.208D+00
 Coeff-Com:  0.119D+01
 Coeff:      0.415D-05-0.561D-04-0.442D-03 0.657D-03 0.190D-01-0.208D+00
 Coeff:      0.119D+01
 Gap=     0.877 Goal=   None    Shift=    0.000
 Gap=     0.877 Goal=   None    Shift=    0.000
 RMSDP=6.97D-08 MaxDP=6.67D-07 DE=-1.57D-09 OVMax= 1.07D-06

 Cycle   8  Pass 1  IDiag  1:
 E= -99.3793979962344     Delta-E=       -0.000000000010 Rises=F Damp=F
 DIIS: error= 9.23D-08 at cycle   8 NSaved=   8.
 NSaved= 8 IEnMin= 8 EnMin= -99.3793979962344     IErMin= 8 ErrMin= 9.23D-08
 ErrMax= 9.23D-08  0.00D+00 EMaxC= 1.00D-01 BMatC= 3.87D-13 BMatP= 4.86D-11
 IDIUse=1 WtCom= 1.00D+00 WtEn= 0.00D+00
 Coeff-Com: -0.235D-06 0.771D-05 0.632D-04-0.261D-03-0.239D-02 0.371D-01
 Coeff-Com: -0.278D+00 0.124D+01
 Coeff:     -0.235D-06 0.771D-05 0.632D-04-0.261D-03-0.239D-02 0.371D-01
 Coeff:     -0.278D+00 0.124D+01
 Gap=     0.877 Goal=   None    Shift=    0.000
 Gap=     0.877 Goal=   None    Shift=    0.000
 RMSDP=9.13D-09 MaxDP=1.47D-07 DE=-9.58D-12 OVMax= 2.08D-07

 SCF Done:  E(UHF) =  -99.3793979962     A.U. after    8 cycles
            NFock=  8  Conv=0.91D-08     -V/T= 1.9707
 <Sx>= 0.0000 <Sy>= 0.0000 <Sz>= 0.0000 <S**2>= 0.0000 S= 0.0000
 <L.S>= 0.000000000000E+00
 KE= 1.023812188165D+02 PE=-2.592808448439D+02 EE= 4.799503823468D+01
 Annihilation of the first spin contaminant:
 S**2 before annihilation     0.0000,   after     0.0000
 Leave Link  502 at Thu Sep 04 20:43:31 2025, MaxMem=  4294967296 cpu:               1.0 elap:               0.9
 (Enter C:\G16W\l801.exe)
 Windowed orbitals will be sorted by symmetry type.
 ExpMin= 1.03D-01 ExpMax= 1.95D+04 ExpMxC= 6.65D+02 IAcc=3 IRadAn=         7 AccDes= 0.00D+00
 HarFok:  IExCor=  205 AccDes= 0.00D+00 IRadAn=         7 IDoV=-2 UseB2=F ITyADJ=14
 ICtDFT= 12500011 ScaDFX=  1.000000  1.000000  1.000000  1.000000
 Largest valence mixing into a core orbital is  8.23D-05
 Largest core mixing into a valence orbital is  7.59D-06
 Largest valence mixing into a core orbital is  8.23D-05
 Largest core mixing into a valence orbital is  7.59D-06
 Range of M.O.s used for correlation:     2    44
 NBasis=    44 NAE=     5 NBE=     5 NFC=     1 NFV=     0
 NROrb=     43 NOA=     4 NOB=     4 NVA=    39 NVB=    39

 **** Warning!!: The largest alpha MO coefficient is  0.20109277D+02


 **** Warning!!: The largest beta MO coefficient is  0.20109277D+02

 Leave Link  801 at Thu Sep 04 20:43:31 2025, MaxMem=  4294967296 cpu:               0.0 elap:               0.4
 (Enter C:\G16W\l804.exe)
 Open-shell transformation, MDV=  4294967296 ITran=4 ISComp=1.
 Unit  1 TFree=        118142 TCopy=        152213.
 Semi-Direct transformation.
 ModeAB=           2 MOrb=             4 LenV=    4294701511
 LASXX=       145335 LTotXX=      145335 LenRXX=      145335
 LTotAB=      157036 MaxLAS=      219300 LenRXY=      219300
 NonZer=      290670 LenScr=      871424 LnRSAI=           0
 LnScr1=           0 LExtra=           0 Total=      1236059
 MaxDsk=          -1 SrtSym=           F ITran=            4
 DoSDTr:  NPSUse= 20
 JobTyp=1 Pass  1:  I=   1 to   4.
 (rs|ai) integrals will be sorted in core.
 Complete sort for first half transformation.
 First half transformation complete.
 Complete sort for second half transformation.
 Second half transformation complete.
 ModeAB=           2 MOrb=             4 LenV=    4294701511
 LASXX=       145335 LTotXX=      145335 LenRXX=      219300
 LTotAB=      129480 MaxLAS=      219300 LenRXY=      129480
 NonZer=      290670 LenScr=      871424 LnRSAI=           0
 LnScr1=           0 LExtra=           0 Total=      1220204
 MaxDsk=          -1 SrtSym=           F ITran=            4
 DoSDTr:  NPSUse= 20
 JobTyp=2 Pass  1:  I=   1 to   4.
 (rs|ai) integrals will be sorted in core.
 Complete sort for first half transformation.
 First half transformation complete.
 Complete sort for second half transformation.
 Second half transformation complete.
 Spin components of T(2) and E(2):
     alpha-alpha T2 =       0.4963235150D-02 E2=     -0.3227261760D-01
     alpha-beta  T2 =       0.2722338464D-01 E2=     -0.1880381545D+00
     beta-beta   T2 =       0.4963235150D-02 E2=     -0.3227261760D-01
 ANorm=    0.1018405545D+01
 E2 =    -0.2525833897D+00 EUMP2 =    -0.99631981385961D+02
 (S**2,0)=  0.00000D+00           (S**2,1)=  0.00000D+00
 E(PUHF)=      -0.99379397996D+02        E(PMP2)=      -0.99631981386D+02
 Leave Link  804 at Thu Sep 04 20:43:32 2025, MaxMem=  4294967296 cpu:               1.0 elap:               0.6
 (Enter C:\G16W\l913.exe)
 CIDS:  MDV=  4294967296.
 Frozen-core window:  NFC=   1 NFV=   0.
 IFCWin=0 IBDFC=1 NFBD=     0     0 NFCmp=     0     0 NFFFC=     0     0
 Using original routines for 1st iteration.
 Using DD4UQ or CC4UQ for 2nd and later iterations.
 Keep R2 and R3 ints in memory in canonical form, NReq=10710293.
 FoFCou: FMM=F IPFlag=           0 FMFlag=           0 FMFlg1=           0
         NFxFlg=           0 DoJE=F BraDBF=F KetDBF=F FulRan=T
         wScrn=  0.000000 ICntrl=       600 IOpCl=  0 I1Cent=           0 NGrid=           0
         NMat0=    1 NMatS0=    990 NMatT0=    0 NMatD0=    1 NMtDS0=    0 NMtDT0=    0
 Symmetry not used in FoFCou.
 Two-electron integral symmetry not used.
 CIDS: In Core Option IDoMem=           1.
 Coupled Cluster theory with single and double substitutions
 ===========================================================
 Iterations=  50 Convergence= 0.100D-06
 Produce multiple copies of IABC intergrals
 Iteration Nr.   1
 **********************
 DD1Dir will call FoFMem   1 times, MxPair=        44
 NAB=    16 NAA=     6 NBB=     6.
 E(PMP3)=      -0.99636352011D+02
 MP4(R+Q)=  0.22096583D-02
 Maximum subspace dimension=  5
 A-vector RMS=  2.1435478D-03 Max=  4.4363854D-03 conv= 1.00D-05.
 RLE energy=       -0.2547408113
 E3=       -0.43706255D-02        EUMP3=      -0.99636352011D+02
 E4(DQ)=    0.54821596D-04        UMP4(DQ)=   -0.99636297190D+02
 E4(SDQ)=  -0.77030589D-03        UMP4(SDQ)=  -0.99637122317D+02
 VARIATIONAL ENERGIES WITH THE FIRST-ORDER WAVEFUNCTION:
 DE(Corr)= -0.25472254     E(Corr)=     -99.634120538    
 NORM(A)=   0.10185745D+01
 Iteration Nr.   2
 **********************
 DD1Dir will call FoFMem   1 times, MxPair=        44
 NAB=    16 NAA=     6 NBB=     6.
 A-vector RMS=  1.7761750D-04 Max=  9.3026499D-04 conv= 1.00D-05.
 RLE energy=       -0.2574247679
 DE(Corr)= -0.25720022     E(CORR)=     -99.636598221     Delta=-2.48D-03
 NORM(A)=   0.10191888D+01
 Iteration Nr.   3
 **********************
 DD1Dir will call FoFMem   1 times, MxPair=        44
 NAB=    16 NAA=     6 NBB=     6.
 A-vector RMS=  1.1417394D-04 Max=  3.1145021D-04 conv= 1.00D-05.
 RLE energy=       -0.2574979097
 DE(Corr)= -0.25741528     E(CORR)=     -99.636813279     Delta=-2.15D-04
 NORM(A)=   0.10192493D+01
 Iteration Nr.   4
 **********************
 DD1Dir will call FoFMem   1 times, MxPair=        44
 NAB=    16 NAA=     6 NBB=     6.
 A-vector RMS=  1.8813399D-05 Max=  5.1157342D-05 conv= 1.00D-05.
 RLE energy=       -0.2575023557
 DE(Corr)= -0.25749952     E(CORR)=     -99.636897512     Delta=-8.42D-05
 NORM(A)=   0.10192597D+01
 Iteration Nr.   5
 **********************
 DD1Dir will call FoFMem   1 times, MxPair=        44
 NAB=    16 NAA=     6 NBB=     6.
 A-vector RMS=  3.5762223D-06 Max=  1.5813728D-05 conv= 1.00D-05.
 RLE energy=       -0.2575035790
 DE(Corr)= -0.25750331     E(CORR)=     -99.636901306     Delta=-3.79D-06
 NORM(A)=   0.10192600D+01
 Iteration Nr.   6
 **********************
 DD1Dir will call FoFMem   1 times, MxPair=        44
 NAB=    16 NAA=     6 NBB=     6.
 A-vector RMS=  1.2041934D-06 Max=  6.4943579D-06 conv= 1.00D-05.
 RLE energy=       -0.2575031434
 DE(Corr)= -0.25750340     E(CORR)=     -99.636901395     Delta=-8.91D-08
 NORM(A)=   0.10192599D+01
 CI/CC converged in    6 iterations to DelEn=-8.91D-08 Conv= 1.00D-07 ErrA1= 1.20D-06 Conv= 1.00D-05
 Wavefunction amplitudes converged. E(Corr)=     -99.636901395    
 Largest amplitude= 2.63D-02

 S**2, projected HF & approx projected MPn energies after annihilation of
 unwanted spin states (see manual for definitions):

 spins       (S**2,0) (S**2,1)    PUHF        PMP2        PMP3        PMP4
 annihilated
 s+1         0.00000  0.00000  -99.379398  -99.631981  -99.636352
 s+1,s+2     0.00000  0.00000  -99.379398  -99.631981  -99.636352
 s+1 to s+3  0.00000  0.00000  -99.379398  -99.631981  -99.636352
 s+1 to s+4  0.00000  0.00000  -99.379398  -99.631981  -99.636352

 Discarding MO integrals.
 Leave Link  913 at Thu Sep 04 20:43:37 2025, MaxMem=  4294967296 cpu:               5.0 elap:               5.2
 (Enter C:\G16W\l601.exe)
 Copying SCF densities to generalized density rwf, IOpCl= 1 IROHF=0.

 **********************************************************************

            Population analysis using the SCF Density.

 **********************************************************************

 Alpha  occ. eigenvalues --  -26.26790  -1.86446  -0.92688  -0.69777  -0.69777
 Alpha virt. eigenvalues --    0.17903   0.69812   0.85790   0.85790   0.88808
 Alpha virt. eigenvalues --    1.04191   1.04191   1.33311   2.22325   2.22325
 Alpha virt. eigenvalues --    2.23602   2.50954   2.59930   2.59930   3.67500
 Alpha virt. eigenvalues --    3.80681   3.80681   3.84693   3.84693   5.02398
 Alpha virt. eigenvalues --    5.02398   5.02523   5.70750   5.70750   6.61977
 Alpha virt. eigenvalues --    7.36846   7.36846   8.40653   8.42811   8.42811
 Alpha virt. eigenvalues --    8.82577   8.82577   8.86909   8.86909   9.17289
 Alpha virt. eigenvalues --   10.38099  11.16244  11.16244  20.68309
  Beta  occ. eigenvalues --  -26.26790  -1.86446  -0.92688  -0.69777  -0.69777
  Beta virt. eigenvalues --    0.17903   0.69812   0.85790   0.85790   0.88808
  Beta virt. eigenvalues --    1.04191   1.04191   1.33311   2.22325   2.22325
  Beta virt. eigenvalues --    2.23602   2.50954   2.59930   2.59930   3.67500
  Beta virt. eigenvalues --    3.80681   3.80681   3.84693   3.84693   5.02398
  Beta virt. eigenvalues --    5.02398   5.02523   5.70750   5.70750   6.61977
  Beta virt. eigenvalues --    7.36846   7.36846   8.40653   8.42811   8.42811
  Beta virt. eigenvalues --    8.82577   8.82577   8.86909   8.86909   9.17289
  Beta virt. eigenvalues --   10.38099  11.16244  11.16244  20.68309
          Condensed to atoms (all electrons):
               1          2
     1  H    0.372881   0.451684
     2  F    0.451684   8.723751
          Atomic-Atomic Spin Densities.
               1          2
     1  H    0.000000   0.000000
     2  F    0.000000   0.000000
 Mulliken charges and spin densities:
               1          2
     1  H    0.175435   0.000000
     2  F   -0.175435   0.000000
 Sum of Mulliken charges =   0.00000   0.00000
 Mulliken charges and spin densities with hydrogens summed into heavy atoms:
               1          2
     2  F    0.000000   0.000000
 Electronic spatial extent (au):  <R**2>=             19.5306
 Charge=              0.0000 electrons
 Dipole moment (field-independent basis, Debye):
    X=              0.0000    Y=              0.0000    Z=             -1.2500  Tot=              1.2500
 Quadrupole moment (field-independent basis, Debye-Ang):
   XX=             -5.0718   YY=             -5.0718   ZZ=             -5.3186
   XY=              0.0000   XZ=              0.0000   YZ=              0.0000
 Traceless Quadrupole moment (field-independent basis, Debye-Ang):
   XX=              0.0823   YY=              0.0823   ZZ=             -0.1645
   XY=              0.0000   XZ=              0.0000   YZ=              0.0000
 Octapole moment (field-independent basis, Debye-Ang**2):
  XXX=              0.0000  YYY=              0.0000  ZZZ=             -7.2650  XYY=              0.0000
  XXY=              0.0000  XXZ=             -2.5084  XZZ=              0.0000  YZZ=              0.0000
  YYZ=             -2.5084  XYZ=              0.0000
 Hexadecapole moment (field-independent basis, Debye-Ang**3):
 XXXX=             -2.8609 YYYY=             -2.8609 ZZZZ=             -9.5578 XXXY=              0.0000
 XXXZ=              0.0000 YYYX=              0.0000 YYYZ=              0.0000 ZZZX=              0.0000
 ZZZY=              0.0000 XXYY=             -0.9536 XXZZ=             -2.1458 YYZZ=             -2.1458
 XXYZ=              0.0000 YYXZ=              0.0000 ZZXY=              0.0000
 N-N= 9.525189796560D+00 E-N=-2.592808450011D+02  KE= 1.023812188165D+02
 Leave Link  601 at Thu Sep 04 20:43:37 2025, MaxMem=  4294967296 cpu:               0.0 elap:               0.5
 (Enter C:\G16W\l9999.exe)
 1|1|UNPC-DESKTOP-SI45VP7|SP|UCCSD-FC|CC-pVTZ|F1H1|DOG OF ROMAN|04-Sep-
 2025|0||#p UCCSD/cc-pVTZ Integral=SuperFineGrid nosymm||H-F UHF single
  point R=RVAL||0,1|H,0,0.,0.,0.|F,0,0.,0.,0.5||Version=EM64W-G16RevB.0
 1|HF=-99.379398|MP2=-99.6319814|MP3=-99.636352|MP4D=-99.6385068|MP4DQ=
 -99.6362972|PUHF=-99.379398|PMP2-0=-99.6319814|PMP3-0=-99.636352|MP4SD
 Q=-99.6371223|CCSD=-99.6369014|S2=0.|S2-1=0.|S2A=0.|RMSD=9.135e-009|PG
 =C*V [C*(H1F1)]||@


 GOD DOES NOT PLAY WITH DICE.
               -- A. EINSTEIN
 Job cpu time:       0 days  0 hours  0 minutes 11.0 seconds.
 Elapsed time:       0 days  0 hours  0 minutes 10.8 seconds.
 File lengths (MBytes):  RWF=     31 Int=      0 D2E=      0 Chk=      1 Scr=      1
 Normal termination of Gaussian 16 at Thu Sep 04 20:43:38 2025.
