 Entering Link 1 = C:\G16W\l1.exe PID=     12160.
  
 Copyright (c) 1988-2017, Gaussian, Inc.  All Rights Reserved.
  
 This is part of the Gaussian(R) 16 program.  It is based on
 the Gaussian(R) 09 system (copyright 2009, Gaussian, Inc.),
 the Gaussian(R) 03 system (copyright 2003, Gaussian, Inc.),
 the Gaussian(R) 98 system (copyright 1998, Gaussian, Inc.),
 the Gaussian(R) 94 system (copyright 1995, Gaussian, Inc.),
 the Gaussian 92(TM) system (copyright 1992, Gaussian, Inc.),
 the Gaussian 90(TM) system (copyright 1990, Gaussian, Inc.),
 the Gaussian 88(TM) system (copyright 1988, Gaussian, Inc.),
 the Gaussian 86(TM) system (copyright 1986, Carnegie Mellon
 University), and the Gaussian 82(TM) system (copyright 1983,
 Carnegie Mellon University). Gaussian is a federally registered
 trademark of Gaussian, Inc.
  
 This software contains proprietary and confidential information,
 including trade secrets, belonging to Gaussian, Inc.
  
 This software is provided under written license and may be
 used, copied, transmitted, or stored only in accord with that
 written license.
  
 The following legend is applicable only to US Government
 contracts under FAR:
  
                    RESTRICTED RIGHTS LEGEND
  
 Use, reproduction and disclosure by the US Government is
 subject to restrictions as set forth in subparagraphs (a)
 and (c) of the Commercial Computer Software - Restricted
 Rights clause in FAR 52.227-19.
  
 Gaussian, Inc.
 340 Quinnipiac St., Bldg. 40, Wallingford CT 06492
  
  
 ---------------------------------------------------------------
 Warning -- This program may not be used in any manner that
 competes with the business of Gaussian, Inc. or will provide
 assistance to any competitor of Gaussian, Inc.  The licensee
 of this program is prohibited from giving any competitor of
 Gaussian, Inc. access to this program.  By using this program,
 the user acknowledges that Gaussian, Inc. is engaged in the
 business of creating and licensing software in the field of
 computational chemistry and represents and warrants to the
 licensee that it is not a competitor of Gaussian, Inc. and that
 it will not use this program in any manner prohibited above.
 ---------------------------------------------------------------
  

 Cite this work as:
 Gaussian 16, Revision B.01,
 M. J. Frisch, G. W. Trucks, H. B. Schlegel, G. E. Scuseria, 
 M. A. Robb, J. R. Cheeseman, G. Scalmani, V. Barone, 
 G. A. Petersson, H. Nakatsuji, X. Li, M. Caricato, A. V. Marenich, 
 J. Bloino, B. G. Janesko, R. Gomperts, B. Mennucci, H. P. Hratchian, 
 J. V. Ortiz, A. F. Izmaylov, J. L. Sonnenberg, D. Williams-Young, 
 F. Ding, F. Lipparini, F. Egidi, J. Goings, B. Peng, A. Petrone, 
 T. Henderson, D. Ranasinghe, V. G. Zakrzewski, J. Gao, N. Rega, 
 G. Zheng, W. Liang, M. Hada, M. Ehara, K. Toyota, R. Fukuda, 
 J. Hasegawa, M. Ishida, T. Nakajima, Y. Honda, O. Kitao, H. Nakai, 
 T. Vreven, K. Throssell, J. A. Montgomery, Jr., J. E. Peralta, 
 F. Ogliaro, M. J. Bearpark, J. J. Heyd, E. N. Brothers, K. N. Kudin, 
 V. N. Staroverov, T. A. Keith, R. Kobayashi, J. Normand, 
 K. Raghavachari, A. P. Rendell, J. C. Burant, S. S. Iyengar, 
 J. Tomasi, M. Cossi, J. M. Millam, M. Klene, C. Adamo, R. Cammi, 
 J. W. Ochterski, R. L. Martin, K. Morokuma, O. Farkas, 
 J. B. Foresman, and D. J. Fox, Gaussian, Inc., Wallingford CT, 2016.
 
 ******************************************
 Gaussian 16:  EM64W-G16RevB.01 16-Dec-2017
                07-Sep-2025 
 ******************************************
 %chk=C:\G16W\Scratch\H-CHFCl-ccpvdz.chk
 %mem=4GB
 %nproc=20
 Will use up to   20 processors via shared memory.
 ------------------------------------------
 #p UB3LYP/cc-pVDZ Opt Guess=Mix Stable=Opt
 ------------------------------------------
 99/5=3/99;
 Leave Link    1 at Sun Sep 07 18:21:17 2025, MaxMem=   536870912 cpu:               1.0 elap:               0.3
 (Enter C:\G16W\l9999.exe)
 Restoring state from the checkpoint file "C:\G16W\Scratch\H-CHFCl-ccpvdz.chk".
 ONIOM results not found on unit 2.
 Title:  CHFCl-dot-ccpvdz
 Route:  #p UB3LYP/cc-pVDZ Opt Freq

 ----------------------------------------------------------------------

 Electric dipole moment (input orientation):
 (Debye = 10**-18 statcoulomb cm , SI units = C m)
                  (au)            (Debye)         (10**-30 SI)
   Tot        0.456491D+00      0.116028D+01      0.387029D+01
   x          0.177306D+00      0.450667D+00      0.150326D+01
   y         -0.406020D+00     -0.103200D+01     -0.344238D+01
   z         -0.109974D+00     -0.279525D+00     -0.932397D+00

 Dipole polarizability, Alpha (input orientation).
 (esu units = cm**3 , SI units = C**2 m**2 J**-1)
 Alpha(0;0):
               (au)            (10**-24 esu)      (10**-40 SI)
   iso        0.198317D+02      0.293875D+01      0.326980D+01
   aniso      0.164144D+02      0.243237D+01      0.270637D+01
   xx         0.299542D+02      0.443876D+01      0.493878D+01
   yx        -0.619562D+00     -0.918097D-01     -0.102152D+00
   yy         0.155540D+02      0.230487D+01      0.256451D+01
   zx         0.279466D+01      0.414126D+00      0.460777D+00
   zy         0.203808D+01      0.302012D+00      0.336034D+00
   zz         0.139868D+02      0.207263D+01      0.230611D+01

 ----------------------------------------------------------------------

 Dipole orientation:
     6         -5.99116808          0.46153416         -8.62403672
     1         -5.86341948          0.68223091         -6.56734052
     9         -4.02158572          1.39053022         -9.89628578
    17         -8.91457562          1.14336067         -9.94988526

 Electric dipole moment (dipole orientation):
 (Debye = 10**-18 statcoulomb cm , SI units = C m)
                  (au)            (Debye)         (10**-30 SI)
   Tot        0.456491D+00      0.116028D+01      0.387029D+01
   x          0.000000D+00      0.000000D+00      0.000000D+00
   y          0.000000D+00      0.000000D+00      0.000000D+00
   z          0.456491D+00      0.116028D+01      0.387029D+01

 Dipole polarizability, Alpha (dipole orientation).
 (esu units = cm**3 , SI units = C**2 m**2 J**-1)
 Alpha(0;0):
               (au)            (10**-24 esu)      (10**-40 SI)
   iso        0.198317D+02      0.293875D+01      0.326980D+01
   aniso      0.164144D+02      0.243237D+01      0.270637D+01
   xx         0.284740D+02      0.421941D+01      0.469473D+01
   yx        -0.171871D+01     -0.254686D+00     -0.283377D+00
   yy         0.126070D+02      0.186817D+01      0.207862D+01
   zx         0.446634D+01      0.661844D+00      0.736400D+00
   zy        -0.156895D+01     -0.232495D+00     -0.258686D+00
   zz         0.184140D+02      0.272867D+01      0.303606D+01

 ----------------------------------------------------------------------


 A MAN IS EXACTLY AS GREAT AS THE TIDE SURGING
 BENEATH HIM.      - BISMARCK
 Job cpu time:       0 days  0 hours  0 minutes  1.0 seconds.
 Elapsed time:       0 days  0 hours  0 minutes  0.7 seconds.
 File lengths (MBytes):  RWF=      6 Int=      0 D2E=      0 Chk=      2 Scr=      1
 Normal termination of Gaussian 16 at Sun Sep 07 18:21:17 2025.
 Entering Link 1 = C:\G16W\l1.exe PID=      2532.
  
 Copyright (c) 1988-2017, Gaussian, Inc.  All Rights Reserved.
  
 This is part of the Gaussian(R) 16 program.  It is based on
 the Gaussian(R) 09 system (copyright 2009, Gaussian, Inc.),
 the Gaussian(R) 03 system (copyright 2003, Gaussian, Inc.),
 the Gaussian(R) 98 system (copyright 1998, Gaussian, Inc.),
 the Gaussian(R) 94 system (copyright 1995, Gaussian, Inc.),
 the Gaussian 92(TM) system (copyright 1992, Gaussian, Inc.),
 the Gaussian 90(TM) system (copyright 1990, Gaussian, Inc.),
 the Gaussian 88(TM) system (copyright 1988, Gaussian, Inc.),
 the Gaussian 86(TM) system (copyright 1986, Carnegie Mellon
 University), and the Gaussian 82(TM) system (copyright 1983,
 Carnegie Mellon University). Gaussian is a federally registered
 trademark of Gaussian, Inc.
  
 This software contains proprietary and confidential information,
 including trade secrets, belonging to Gaussian, Inc.
  
 This software is provided under written license and may be
 used, copied, transmitted, or stored only in accord with that
 written license.
  
 The following legend is applicable only to US Government
 contracts under FAR:
  
                    RESTRICTED RIGHTS LEGEND
  
 Use, reproduction and disclosure by the US Government is
 subject to restrictions as set forth in subparagraphs (a)
 and (c) of the Commercial Computer Software - Restricted
 Rights clause in FAR 52.227-19.
  
 Gaussian, Inc.
 340 Quinnipiac St., Bldg. 40, Wallingford CT 06492
  
  
 ---------------------------------------------------------------
 Warning -- This program may not be used in any manner that
 competes with the business of Gaussian, Inc. or will provide
 assistance to any competitor of Gaussian, Inc.  The licensee
 of this program is prohibited from giving any competitor of
 Gaussian, Inc. access to this program.  By using this program,
 the user acknowledges that Gaussian, Inc. is engaged in the
 business of creating and licensing software in the field of
 computational chemistry and represents and warrants to the
 licensee that it is not a competitor of Gaussian, Inc. and that
 it will not use this program in any manner prohibited above.
 ---------------------------------------------------------------
  

 Cite this work as:
 Gaussian 16, Revision B.01,
 M. J. Frisch, G. W. Trucks, H. B. Schlegel, G. E. Scuseria, 
 M. A. Robb, J. R. Cheeseman, G. Scalmani, V. Barone, 
 G. A. Petersson, H. Nakatsuji, X. Li, M. Caricato, A. V. Marenich, 
 J. Bloino, B. G. Janesko, R. Gomperts, B. Mennucci, H. P. Hratchian, 
 J. V. Ortiz, A. F. Izmaylov, J. L. Sonnenberg, D. Williams-Young, 
 F. Ding, F. Lipparini, F. Egidi, J. Goings, B. Peng, A. Petrone, 
 T. Henderson, D. Ranasinghe, V. G. Zakrzewski, J. Gao, N. Rega, 
 G. Zheng, W. Liang, M. Hada, M. Ehara, K. Toyota, R. Fukuda, 
 J. Hasegawa, M. Ishida, T. Nakajima, Y. Honda, O. Kitao, H. Nakai, 
 T. Vreven, K. Throssell, J. A. Montgomery, Jr., J. E. Peralta, 
 F. Ogliaro, M. J. Bearpark, J. J. Heyd, E. N. Brothers, K. N. Kudin, 
 V. N. Staroverov, T. A. Keith, R. Kobayashi, J. Normand, 
 K. Raghavachari, A. P. Rendell, J. C. Burant, S. S. Iyengar, 
 J. Tomasi, M. Cossi, J. M. Millam, M. Klene, C. Adamo, R. Cammi, 
 J. W. Ochterski, R. L. Martin, K. Morokuma, O. Farkas, 
 J. B. Foresman, and D. J. Fox, Gaussian, Inc., Wallingford CT, 2016.
 
 ******************************************
 Gaussian 16:  EM64W-G16RevB.01 16-Dec-2017
                07-Sep-2025 
 ******************************************
 %chk=C:\G16W\Scratch\H-CHFCl-ccpvdz.chk
 -----------------------------------------------
 #p UB3LYP/cc-pVDZ Freq Geom=AllCheck Guess=Read
 -----------------------------------------------
 1/10=4,29=7,30=1,38=1/1,3;
 2/12=2,40=1/2;
 3/5=16,11=2,14=-4,25=1,30=1,71=2,74=-5,116=2,140=1/1,2,3;
 4/5=1/1;
 5/5=2,38=6,98=1/2;
 8/6=4,10=90,11=11/1;
 11/6=1,8=1,9=11,15=111,16=1/1,2,10;
 10/6=1/2;
 6/7=2,8=2,9=2,10=2,28=1/1;
 7/8=1,10=1,25=1/1,2,3,16;
 1/10=4,30=1/3;
 99//99;
 Leave Link    1 at Sun Sep 07 18:21:17 2025, MaxMem=           0 cpu:               0.0 elap:               0.0
 (Enter C:\G16W\l101.exe)
 Structure from the checkpoint file:  "C:\G16W\Scratch\H-CHFCl-ccpvdz.chk"
 ----------------
 CHFCl-dot-ccpvdz
 ----------------
 Charge =  0 Multiplicity = 2
 Redundant internal coordinates found in file.  (old form).
 C,0,-4.6255146041,3.0879137188,0.0852498445
 H,0,-4.1759153608,2.0963749421,-0.0468151221
 F,0,-4.1083256359,3.7986863221,1.0895172291
 Cl,0,-6.3574000592,3.150481547,-0.0256813614
 Recover connectivity data from disk.
 ITRead=  0  0  0  0
 MicOpt= -1 -1 -1 -1
 NAtoms=      4 NQM=        4 NQMF=       0 NMMI=      0 NMMIF=      0
                NMic=       0 NMicF=      0.
                    Isotopes and Nuclear Properties:
 (Nuclear quadrupole moments (NQMom) in fm**2, nuclear magnetic moments (NMagM)
  in nuclear magnetons)

  Atom         1           2           3           4
 IAtWgt=          12           1          19          35
 AtmWgt=  12.0000000   1.0078250  18.9984033  34.9688527
 NucSpn=           0           1           1           3
 AtZEff=   3.6000000   1.0000000   6.7500000  14.2400000
 NQMom=    0.0000000   0.0000000   0.0000000  -8.1650000
 NMagM=    0.0000000   2.7928460   2.6288670   0.8218740
 AtZNuc=   6.0000000   1.0000000   9.0000000  17.0000000
 Leave Link  101 at Sun Sep 07 18:21:17 2025, MaxMem=   104857600 cpu:               0.0 elap:               0.1
 (Enter C:\G16W\l103.exe)

 GradGradGradGradGradGradGradGradGradGradGradGradGradGradGradGradGradGrad
 Berny optimization.
 Initialization pass.
                           ----------------------------
                           !    Initial Parameters    !
                           ! (Angstroms and Degrees)  !
 --------------------------                            --------------------------
 ! Name  Definition              Value          Derivative Info.                !
 --------------------------------------------------------------------------------
 ! R1    R(1,2)                  1.0967         calculate D2E/DX2 analytically  !
 ! R2    R(1,3)                  1.3346         calculate D2E/DX2 analytically  !
 ! R3    R(1,4)                  1.7366         calculate D2E/DX2 analytically  !
 ! A1    A(2,1,3)              114.409          calculate D2E/DX2 analytically  !
 ! A2    A(2,1,4)              115.7051         calculate D2E/DX2 analytically  !
 ! A3    A(3,1,4)              114.5414         calculate D2E/DX2 analytically  !
 ! D1    D(2,1,4,3)            136.3839         calculate D2E/DX2 analytically  !
 --------------------------------------------------------------------------------
 Trust Radius=3.00D-01 FncErr=1.00D-07 GrdErr=1.00D-07 EigMax=2.50D+02 EigMin=1.00D-04
 Number of steps in this run=      2 maximum allowed number of steps=      2.
 GradGradGradGradGradGradGradGradGradGradGradGradGradGradGradGradGradGrad

 Leave Link  103 at Sun Sep 07 18:21:17 2025, MaxMem=   104857600 cpu:               0.0 elap:               0.0
 (Enter C:\G16W\l202.exe)
                          Input orientation:                          
 ---------------------------------------------------------------------
 Center     Atomic      Atomic             Coordinates (Angstroms)
 Number     Number       Type             X           Y           Z
 ---------------------------------------------------------------------
      1          6           0       -4.625515    3.087914    0.085250
      2          1           0       -4.175915    2.096375   -0.046815
      3          9           0       -4.108326    3.798686    1.089517
      4         17           0       -6.357400    3.150482   -0.025681
 ---------------------------------------------------------------------
                    Distance matrix (angstroms):
                    1          2          3          4
     1  C    0.000000
     2  H    1.096690   0.000000
     3  F    1.334629   2.047849   0.000000
     4  Cl   1.736562   2.422904   2.592715   0.000000
 Stoichiometry    CHClF(2)
 Framework group  C1[X(CHClF)]
 Deg. of freedom     6
 Full point group                 C1      NOp   1
 RotChk:  IX=0 Diff= 3.35D-15
 Largest Abelian subgroup         C1      NOp   1
 Largest concise Abelian subgroup C1      NOp   1
                         Standard orientation:                         
 ---------------------------------------------------------------------
 Center     Atomic      Atomic             Coordinates (Angstroms)
 Number     Number       Type             X           Y           Z
 ---------------------------------------------------------------------
      1          6           0       -0.553805    0.549929   -0.135954
      2          1           0       -0.725981    1.508628    0.368013
      3          9           0       -1.532097   -0.342957    0.028166
      4         17           0        1.049275   -0.101270    0.011425
 ---------------------------------------------------------------------
 Rotational constants (GHZ):          57.3857529           5.7645121           5.2749312
 Leave Link  202 at Sun Sep 07 18:21:17 2025, MaxMem=   104857600 cpu:               0.0 elap:               0.0
 (Enter C:\G16W\l301.exe)
 Standard basis: CC-pVDZ (5D, 7F)
 Ernie: Thresh=  0.10000D-02 Tol=  0.10000D-05 Strict=F.
 Ernie:  14 primitive shells out of 99 were deleted.
 There are    54 symmetry adapted cartesian basis functions of A   symmetry.
 There are    51 symmetry adapted basis functions of A   symmetry.
    51 basis functions,   144 primitive gaussians,    54 cartesian basis functions
    17 alpha electrons       16 beta electrons
       nuclear repulsion energy        92.6542454071 Hartrees.
 IExCor=  402 DFT=T Ex+Corr=B3LYP ExCW=0 ScaHFX=  0.200000
 ScaDFX=  0.800000  0.720000  1.000000  0.810000 ScalE2=  1.000000  1.000000
 IRadAn=      5 IRanWt=     -1 IRanGd=            0 ICorTp=0 IEmpDi=  4
 NAtoms=    4 NActive=    4 NUniq=    4 SFac= 1.00D+00 NAtFMM=   60 NAOKFM=F Big=F
 Integral buffers will be    131072 words long.
 Raffenetti 2 integral format.
 Two-electron integral symmetry is turned on.
 Leave Link  301 at Sun Sep 07 18:21:17 2025, MaxMem=   104857600 cpu:               0.0 elap:               0.0
 (Enter C:\G16W\l302.exe)
 NPDir=0 NMtPBC=     1 NCelOv=     1 NCel=       1 NClECP=     1 NCelD=      1
         NCelK=      1 NCelE2=     1 NClLst=     1 CellRange=     0.0.
 One-electron integrals computed using PRISM.
 One-electron integral symmetry used in STVInt
 NBasis=    51 RedAO= T EigKep=  1.63D-02  NBF=    51
 NBsUse=    51 1.00D-06 EigRej= -1.00D+00 NBFU=    51
 Precomputing XC quadrature grid using
 IXCGrd= 4 IRadAn=           5 IRanWt=          -1 IRanGd=           0 AccXCQ= 0.00D+00.
 Generated NRdTot=       0 NPtTot=           0 NUsed=           0 NTot=          32
 NSgBfM=    54    54    54    54    54 MxSgAt=     4 MxSgA2=     4.
 Leave Link  302 at Sun Sep 07 18:21:17 2025, MaxMem=   104857600 cpu:               0.0 elap:               0.1
 (Enter C:\G16W\l303.exe)
 DipDrv:  MaxL=1.
 Leave Link  303 at Sun Sep 07 18:21:17 2025, MaxMem=   104857600 cpu:               0.0 elap:               0.0
 (Enter C:\G16W\l401.exe)
 Initial guess from the checkpoint file:  "C:\G16W\Scratch\H-CHFCl-ccpvdz.chk"
 B after Tr=     0.000000    0.000000    0.000000
         Rot=    1.000000    0.000000    0.000000    0.000000 Ang=   0.00 deg.
 Guess basis will be translated and rotated to current coordinates.
 JPrj=2 DoOrth=T DoCkMO=T.
 Initial guess <Sx>= 0.0000 <Sy>= 0.0000 <Sz>= 0.5000 <S**2>= 0.7528 S= 0.5014
 Leave Link  401 at Sun Sep 07 18:21:17 2025, MaxMem=   104857600 cpu:               0.0 elap:               0.0
 (Enter C:\G16W\l502.exe)
 Keep R1 and R2 ints in memory in canonical form, NReq=2636943.
 FoFCou: FMM=F IPFlag=           0 FMFlag=           0 FMFlg1=           0
         NFxFlg=           0 DoJE=F BraDBF=F KetDBF=F FulRan=T
         wScrn=  0.000000 ICntrl=       600 IOpCl=  0 I1Cent=           0 NGrid=           0
         NMat0=    1 NMatS0=   1326 NMatT0=    0 NMatD0=    1 NMtDS0=    0 NMtDT0=    0
 Symmetry not used in FoFCou.
 Two-electron integral symmetry not used.
 UHF open shell SCF:
 Using DIIS extrapolation, IDIIS=  1040.
 NGot=   104857600 LenX=   103091162 LenY=   103087805
 Requested convergence on RMS density matrix=1.00D-08 within 128 cycles.
 Requested convergence on MAX density matrix=1.00D-06.
 Requested convergence on             energy=1.00D-06.
 No special actions if energy rises.

 Cycle   1  Pass 1  IDiag  1:
 E= -598.698760286969    
 DIIS: error= 1.44D-09 at cycle   1 NSaved=   1.
 NSaved= 1 IEnMin= 1 EnMin= -598.698760286969     IErMin= 1 ErrMin= 1.44D-09
 ErrMax= 1.44D-09  0.00D+00 EMaxC= 1.00D-01 BMatC= 5.20D-16 BMatP= 5.20D-16
 IDIUse=1 WtCom= 1.00D+00 WtEn= 0.00D+00
 Coeff-Com:  0.100D+01
 Coeff:      0.100D+01
 Gap=     0.256 Goal=   None    Shift=    0.000
 Gap=     0.258 Goal=   None    Shift=    0.000
 RMSDP=3.68D-10 MaxDP=4.12D-09              OVMax= 7.20D-09

 SCF Done:  E(UB3LYP) =  -598.698760287     A.U. after    1 cycles
            NFock=  1  Conv=0.37D-09     -V/T= 2.0027
 <Sx>= 0.0000 <Sy>= 0.0000 <Sz>= 0.5000 <S**2>= 0.7528 S= 0.5014
 <L.S>= 0.000000000000E+00
 KE= 5.971108325101D+02 PE=-1.607530645161D+03 EE= 3.190668069566D+02
 Annihilation of the first spin contaminant:
 S**2 before annihilation     0.7528,   after     0.7500
 Leave Link  502 at Sun Sep 07 18:21:18 2025, MaxMem=   104857600 cpu:               1.0 elap:               0.5
 (Enter C:\G16W\l801.exe)
 DoSCS=F DFT=T ScalE2(SS,OS)=  1.000000  1.000000
 Range of M.O.s used for correlation:     1    51
 NBasis=    51 NAE=    17 NBE=    16 NFC=     0 NFV=     0
 NROrb=     51 NOA=    17 NOB=    16 NVA=    34 NVB=    35
 Leave Link  801 at Sun Sep 07 18:21:18 2025, MaxMem=   104857600 cpu:               0.0 elap:               0.0
 (Enter C:\G16W\l1101.exe)
 Using compressed storage, NAtomX=     4.
 Will process      5 centers per pass.
 Leave Link 1101 at Sun Sep 07 18:21:18 2025, MaxMem=   104857600 cpu:               0.0 elap:               0.0
 (Enter C:\G16W\l1102.exe)
 Symmetrizing basis deriv contribution to polar:
 IMax=3 JMax=2 DiffMx= 0.00D+00
 Leave Link 1102 at Sun Sep 07 18:21:18 2025, MaxMem=   104857600 cpu:               0.0 elap:               0.0
 (Enter C:\G16W\l1110.exe)
 Forming Gx(P) for the SCF density, NAtomX=     4.
 Integral derivatives from FoFJK, PRISM(SPDF).
 Do as many integral derivatives as possible in FoFJK.
 G2DrvN: MDV=     104857152.
 G2DrvN: will do     5 centers at a time, making    1 passes.
 Calling FoFCou, ICntrl=  3107 FMM=F I1Cent=   0 AccDes= 0.00D+00.
 FoFJK:  IHMeth= 1 ICntrl=    3107 DoSepK=F KAlg= 0 I1Cent=           0 FoldK=F
 IRaf=         0 NMat=       1 IRICut=       1 DoRegI=T DoRafI=F ISym2E= 0 IDoP0=0 IntGTp=1.
 FoFCou: FMM=F IPFlag=           0 FMFlag=      100000 FMFlg1=           0
         NFxFlg=           0 DoJE=F BraDBF=F KetDBF=F FulRan=T
         wScrn=  0.000000 ICntrl=      3107 IOpCl=  1 I1Cent=           0 NGrid=           0
         NMat0=    1 NMatS0=      1 NMatT0=    0 NMatD0=    1 NMtDS0=    0 NMtDT0=    0
 Symmetry not used in FoFCou.
 End of G2Drv F.D. properties file   721 does not exist.
 End of G2Drv F.D. properties file   722 does not exist.
 End of G2Drv F.D. properties file   788 does not exist.
 Leave Link 1110 at Sun Sep 07 18:21:21 2025, MaxMem=   104857600 cpu:               3.0 elap:               3.3
 (Enter C:\G16W\l1002.exe)
 Minotr:  UHF open shell wavefunction.
          IDoAtm=1111
          Direct CPHF calculation.
          Differentiating once with respect to electric field.
                with respect to dipole field.
          Differentiating once with respect to nuclear coordinates.
          Requested convergence is 1.0D-08 RMS, and 1.0D-07 maximum.
          Secondary convergence is 1.0D-12 RMS, and 1.0D-12 maximum.
          NewPWx=T KeepS1=F KeepF1=F KeepIn=T MapXYZ=F SortEE=F KeepMc=T.
         1158 words used for storage of precomputed grid.
 Keep R1 and R2 ints in memory in canonical form, NReq=2637283.
 FoFCou: FMM=F IPFlag=           0 FMFlag=           0 FMFlg1=           0
         NFxFlg=           0 DoJE=F BraDBF=F KetDBF=F FulRan=T
         wScrn=  0.000000 ICntrl=       600 IOpCl=  0 I1Cent=           0 NGrid=           0
         NMat0=    1 NMatS0=   1326 NMatT0=    0 NMatD0=    1 NMtDS0=    0 NMtDT0=    0
 Symmetry not used in FoFCou.
 Two-electron integral symmetry not used.
          MDV=     104857600 using IRadAn=       1.
          Solving linear equations simultaneously, MaxMat=       0.
          There are    15 degrees of freedom in the 1st order CPHF.  IDoFFX=6 NUNeed=     3.
     12 vectors produced by pass  0 Test12= 7.59D-15 6.67D-09 XBig12= 5.00D+01 3.62D+00.
 AX will form    12 AO Fock derivatives at one time.
     12 vectors produced by pass  1 Test12= 7.59D-15 6.67D-09 XBig12= 7.71D+00 5.28D-01.
     12 vectors produced by pass  2 Test12= 7.59D-15 6.67D-09 XBig12= 2.60D-01 1.44D-01.
     12 vectors produced by pass  3 Test12= 7.59D-15 6.67D-09 XBig12= 2.90D-03 1.11D-02.
     12 vectors produced by pass  4 Test12= 7.59D-15 6.67D-09 XBig12= 2.37D-05 1.25D-03.
     12 vectors produced by pass  5 Test12= 7.59D-15 6.67D-09 XBig12= 1.38D-07 7.22D-05.
     11 vectors produced by pass  6 Test12= 7.59D-15 6.67D-09 XBig12= 6.03D-10 4.62D-06.
      5 vectors produced by pass  7 Test12= 7.59D-15 6.67D-09 XBig12= 1.71D-12 1.87D-07.
      2 vectors produced by pass  8 Test12= 7.59D-15 6.67D-09 XBig12= 4.67D-15 1.34D-08.
 InvSVY:  IOpt=1 It=  1 EMax= 8.88D-16
 Solved reduced A of dimension    90 with    12 vectors.
 FullF1:  Do perturbations      1 to       3.
 Isotropic polarizability for W=    0.000000       19.83 Bohr**3.
 End of Minotr F.D. properties file   721 does not exist.
 End of Minotr F.D. properties file   722 does not exist.
 End of Minotr F.D. properties file   788 does not exist.
 Leave Link 1002 at Sun Sep 07 18:21:26 2025, MaxMem=   104857600 cpu:               5.0 elap:               5.0
 (Enter C:\G16W\l601.exe)
 Copying SCF densities to generalized density rwf, IOpCl= 1 IROHF=0.

 **********************************************************************

            Population analysis using the SCF Density.

 **********************************************************************

 Orbital symmetries:
 Alpha Orbitals:
       Occupied  (A) (A) (A) (A) (A) (A) (A) (A) (A) (A) (A) (A)
                 (A) (A) (A) (A) (A)
       Virtual   (A) (A) (A) (A) (A) (A) (A) (A) (A) (A) (A) (A)
                 (A) (A) (A) (A) (A) (A) (A) (A) (A) (A) (A) (A)
                 (A) (A) (A) (A) (A) (A) (A) (A) (A) (A)
 Beta  Orbitals:
       Occupied  (A) (A) (A) (A) (A) (A) (A) (A) (A) (A) (A) (A)
                 (A) (A) (A) (A)
       Virtual   (A) (A) (A) (A) (A) (A) (A) (A) (A) (A) (A) (A)
                 (A) (A) (A) (A) (A) (A) (A) (A) (A) (A) (A) (A)
                 (A) (A) (A) (A) (A) (A) (A) (A) (A) (A) (A)
 The electronic state is 2-A.
 Alpha  occ. eigenvalues -- -101.56500 -24.73727 -10.32935  -9.48355  -7.24564
 Alpha  occ. eigenvalues --   -7.23756  -7.23594  -1.25841  -0.88226  -0.67513
 Alpha  occ. eigenvalues --   -0.54692  -0.51237  -0.49834  -0.39817  -0.36424
 Alpha  occ. eigenvalues --   -0.33866  -0.22954
 Alpha virt. eigenvalues --    0.02656   0.09283   0.12345   0.41433   0.44149
 Alpha virt. eigenvalues --    0.45665   0.47376   0.49798   0.54601   0.54952
 Alpha virt. eigenvalues --    0.66241   0.68478   0.70447   0.71203   0.78366
 Alpha virt. eigenvalues --    0.86370   1.02275   1.06060   1.13561   1.21715
 Alpha virt. eigenvalues --    1.27564   1.31920   1.46426   1.61435   1.64910
 Alpha virt. eigenvalues --    1.75448   1.84914   2.23376   2.39459   3.54136
 Alpha virt. eigenvalues --    3.54419   3.73188   3.81163   4.02192
  Beta  occ. eigenvalues -- -101.56418 -24.73316 -10.31471  -9.48275  -7.24507
  Beta  occ. eigenvalues --   -7.23549  -7.23504  -1.24873  -0.87336  -0.65337
  Beta  occ. eigenvalues --   -0.53625  -0.50384  -0.46435  -0.39101  -0.34603
  Beta  occ. eigenvalues --   -0.33647
  Beta virt. eigenvalues --   -0.07897   0.04085   0.10262   0.13918   0.42541
  Beta virt. eigenvalues --    0.46735   0.48044   0.49413   0.50624   0.54972
  Beta virt. eigenvalues --    0.55495   0.67307   0.69592   0.71169   0.71795
  Beta virt. eigenvalues --    0.79574   0.87987   1.04255   1.06790   1.15361
  Beta virt. eigenvalues --    1.23570   1.28899   1.32860   1.50624   1.62424
  Beta virt. eigenvalues --    1.66210   1.78272   1.85967   2.23986   2.40351
  Beta virt. eigenvalues --    3.55234   3.55525   3.74440   3.81586   4.02881
          Condensed to atoms (all electrons):
               1          2          3          4
     1  C    4.937859   0.373347   0.321869   0.251756
     2  H    0.373347   0.628652  -0.025833  -0.049709
     3  F    0.321869  -0.025833   8.879752  -0.039380
     4  Cl   0.251756  -0.049709  -0.039380  16.889637
          Atomic-Atomic Spin Densities.
               1          2          3          4
     1  C    1.059000  -0.019523  -0.094555  -0.108927
     2  H   -0.019523   0.008198   0.001269   0.005078
     3  F   -0.094555   0.001269   0.170714   0.004969
     4  Cl  -0.108927   0.005078   0.004969   0.185466
 Mulliken charges and spin densities:
               1          2
     1  C    0.115170   0.835995
     2  H    0.073543  -0.004979
     3  F   -0.136408   0.082397
     4  Cl  -0.052304   0.086587
 Sum of Mulliken charges =   0.00000   1.00000
 Mulliken charges and spin densities with hydrogens summed into heavy atoms:
               1          2
     1  C    0.188713   0.831017
     3  F   -0.136408   0.082397
     4  Cl  -0.052304   0.086587
 APT charges:
               1
     1  C    0.764858
     2  H    0.023283
     3  F   -0.477225
     4  Cl  -0.310916
 Sum of APT charges =   0.00000
 APT charges with hydrogens summed into heavy atoms:
               1
     1  C    0.788141
     3  F   -0.477225
     4  Cl  -0.310916
 Electronic spatial extent (au):  <R**2>=            222.0351
 Charge=              0.0000 electrons
 Dipole moment (field-independent basis, Debye):
    X=             -0.1106    Y=              1.0741    Z=              0.4247  Tot=              1.1603
 Quadrupole moment (field-independent basis, Debye-Ang):
   XX=            -23.7409   YY=            -21.8703   ZZ=            -23.4939
   XY=             -1.3127   XZ=             -0.2290   YZ=              0.6152
 Traceless Quadrupole moment (field-independent basis, Debye-Ang):
   XX=             -0.7059   YY=              1.1647   ZZ=             -0.4588
   XY=             -1.3127   XZ=             -0.2290   YZ=              0.6152
 Octapole moment (field-independent basis, Debye-Ang**2):
  XXX=             -3.2691  YYY=             -1.2247  ZZZ=              1.1932  XYY=             -3.3655
  XXY=             -1.1887  XXZ=              0.6078  XZZ=             -2.6064  YZZ=             -1.3871
  YYZ=              1.2409  XYZ=             -0.5319
 Hexadecapole moment (field-independent basis, Debye-Ang**3):
 XXXX=           -175.8355 YYYY=            -40.9638 ZZZZ=            -24.1692 XXXY=              0.5932
 XXXZ=             -0.3198 YYYX=              2.3294 YYYZ=              1.8079 ZZZX=             -0.8774
 ZZZY=              0.7020 XXYY=            -36.2668 XXZZ=            -34.1889 YYZZ=            -11.5269
 XXYZ=              0.2447 YYXZ=             -0.8947 ZZXY=              1.4202
 N-N= 9.265424540714D+01 E-N=-1.607530645122D+03  KE= 5.971108325101D+02
  Exact polarizability:  29.191  -3.924  17.959   0.626   0.674  12.346
 Approx polarizability:  44.449  -5.273  24.784   1.359   0.272  17.032
                          Isotropic Fermi Contact Couplings
        Atom                 a.u.       MegaHertz       Gauss      10(-4) cm-1
     1  C(13)              0.31027     348.80740     124.46315     116.34962
     2  H(1)               0.00310      13.84591       4.94057       4.61850
     3  F(19)              0.05192     218.43643      77.94355      72.86255
     4  Cl(35)             0.04706      20.63305       7.36239       6.88245
 --------------------------------------------------------
       Center         ----  Spin Dipole Couplings  ----
                      3XX-RR        3YY-RR        3ZZ-RR
 --------------------------------------------------------
     1   Atom       -0.511638     -0.483249      0.994887
     2   Atom       -0.054858      0.049406      0.005453
     3   Atom       -0.456947     -0.401780      0.858727
     4   Atom       -0.398053     -0.333176      0.731228
 --------------------------------------------------------
                        XY            XZ            YZ
 --------------------------------------------------------
     1   Atom       -0.016266      0.054605     -0.207407
     2   Atom       -0.020648     -0.004436      0.033793
     3   Atom       -0.021865     -0.032550     -0.242828
     4   Atom       -0.017428      0.372986     -0.225799
 --------------------------------------------------------


 ---------------------------------------------------------------------------------
              Anisotropic Spin Dipole Couplings in Principal Axis System
 ---------------------------------------------------------------------------------

       Atom             a.u.   MegaHertz   Gauss  10(-4) cm-1        Axes

              Baa    -0.5215   -69.976   -24.969   -23.341  0.7442  0.6649  0.0641
     1 C(13)  Bbb    -0.5040   -67.637   -24.135   -22.561 -0.6670  0.7344  0.1259
              Bcc     1.0255   137.612    49.104    45.903  0.0366 -0.1365  0.9900
 
              Baa    -0.0589   -31.411   -11.208   -10.477  0.9795  0.1982 -0.0366
     2 H(1)   Bbb    -0.0121    -6.478    -2.312    -2.161  0.1233 -0.4455  0.8867
              Bcc     0.0710    37.889    13.520    12.638 -0.1595  0.8731  0.4608
 
              Baa    -0.4802  -241.159   -86.051   -80.442  0.7710  0.6231  0.1317
     3 F(19)  Bbb    -0.4243  -213.086   -76.035   -71.078 -0.6365  0.7606  0.1278
              Bcc     0.9045   454.245   162.086   151.520 -0.0206 -0.1824  0.9830
 
              Baa    -0.5251   -27.480    -9.806    -9.166  0.9002 -0.2952 -0.3203
     4 Cl(35) Bbb    -0.3585   -18.765    -6.696    -6.259  0.3360  0.9385  0.0795
              Bcc     0.8836    46.245    16.501    15.426  0.2772 -0.1791  0.9440
 

 ---------------------------------------------------------------------------------

 No NMR shielding tensors so no spin-rotation constants.
 Leave Link  601 at Sun Sep 07 18:21:27 2025, MaxMem=   104857600 cpu:               1.0 elap:               0.1
 (Enter C:\G16W\l701.exe)
 ... and contract with generalized density number  0.
 Compute integral second derivatives.
 Leave Link  701 at Sun Sep 07 18:21:27 2025, MaxMem=   104857600 cpu:               0.0 elap:               0.0
 (Enter C:\G16W\l702.exe)
 L702 exits ... SP integral derivatives will be done elsewhere.
 Leave Link  702 at Sun Sep 07 18:21:27 2025, MaxMem=   104857600 cpu:               0.0 elap:               0.0
 (Enter C:\G16W\l703.exe)
 Integral derivatives from FoFJK, PRISM(SPDF).
 Compute integral second derivatives, UseDBF=F ICtDFT=           0.
 Calling FoFJK, ICntrl=    100127 FMM=F ISym2X=0 I1Cent= 0 IOpClX= 1 NMat=1 NMatS=1 NMatT=0.
 FoFJK:  IHMeth= 1 ICntrl=  100127 DoSepK=F KAlg= 0 I1Cent=           0 FoldK=F
 IRaf=         0 NMat=       1 IRICut=       1 DoRegI=T DoRafI=F ISym2E= 0 IDoP0=0 IntGTp=1.
 FoFCou: FMM=F IPFlag=           0 FMFlag=      100000 FMFlg1=         800
         NFxFlg=           0 DoJE=F BraDBF=F KetDBF=F FulRan=T
         wScrn=  0.000000 ICntrl=    100127 IOpCl=  1 I1Cent=           0 NGrid=           0
         NMat0=    1 NMatS0=      1 NMatT0=    0 NMatD0=    1 NMtDS0=    0 NMtDT0=    0
 Symmetry not used in FoFCou.
 Leave Link  703 at Sun Sep 07 18:21:32 2025, MaxMem=   104857600 cpu:               5.0 elap:               5.3
 (Enter C:\G16W\l716.exe)
 Dipole        =-4.34962059D-02 4.22571148D-01 1.67108882D-01
 Polarizability= 2.91905684D+01-3.92376641D+00 1.79588830D+01
                 6.25949492D-01 6.74088945D-01 1.23455783D+01
 Full mass-weighted force constant matrix:
 Low frequencies ---   -9.0259   -0.0054   -0.0052   -0.0020    4.5670   15.3632
 Low frequencies ---  400.1183  721.9607  837.4552
 Diagonal vibrational polarizability:
        7.1482605       1.6235864       0.2917799
 Harmonic frequencies (cm**-1), IR intensities (KM/Mole), Raman scattering
 activities (A**4/AMU), depolarization ratios for plane and unpolarized
 incident light, reduced masses (AMU), force constants (mDyne/A),
 and normal coordinates:
                      1                      2                      3
                      A                      A                      A
 Frequencies --    400.1182               721.9606               837.4552
 Red. masses --     17.7830                 2.5716                 2.0579
 Frc consts  --      1.6774                 0.7897                 0.8504
 IR Inten    --      1.0277                38.9392                58.0403
  Atom  AN      X      Y      Z        X      Y      Z        X      Y      Z
     1   6     0.08   0.44  -0.09    -0.21   0.17  -0.21     0.17  -0.16  -0.11
     2   1    -0.12   0.33   0.08    -0.03  -0.33   0.87     0.49  -0.51   0.66
     3   9     0.69  -0.13   0.03     0.00  -0.02   0.04     0.00   0.04   0.02
     4  17    -0.40  -0.09   0.01     0.07  -0.04   0.02    -0.07   0.05   0.01
                      4                      5                      6
                      A                      A                      A
 Frequencies --   1177.8525              1280.9202              3151.0468
 Red. masses --      5.0780                 1.2830                 1.0887
 Frc consts  --      4.1508                 1.2403                 6.3690
 IR Inten    --    178.4466                70.6901                11.9637
  Atom  AN      X      Y      Z        X      Y      Z        X      Y      Z
     1   6     0.29   0.34  -0.05    -0.14  -0.03   0.03     0.01  -0.08  -0.04
     2   1     0.73   0.41  -0.01     0.95   0.23  -0.11    -0.15   0.88   0.45
     3   9    -0.22  -0.24   0.03     0.03   0.00  -0.02     0.00   0.00   0.00
     4  17     0.00   0.00   0.00     0.00   0.01   0.00     0.00   0.00   0.00

 -------------------
 - Thermochemistry -
 -------------------
 Temperature   298.150 Kelvin.  Pressure   1.00000 Atm.
 Atom     1 has atomic number  6 and mass  12.00000
 Atom     2 has atomic number  1 and mass   1.00783
 Atom     3 has atomic number  9 and mass  18.99840
 Atom     4 has atomic number 17 and mass  34.96885
 Molecular mass:    66.97508 amu.
 Principal axes and moments of inertia in atomic units:
                           1         2         3
     Eigenvalues --    31.44929 313.07788 342.13550
           X            0.99981  -0.01895  -0.00392
           Y            0.01918   0.99730   0.07084
           Z            0.00257  -0.07090   0.99748
 This molecule is an asymmetric top.
 Rotational symmetry number  1.
 Rotational temperatures (Kelvin)      2.75408     0.27665     0.25316
 Rotational constants (GHZ):          57.38575     5.76451     5.27493
 Zero-point vibrational energy      45274.8 (Joules/Mol)
                                   10.82093 (Kcal/Mol)
 Warning -- explicit consideration of   1 degrees of freedom as
           vibrations may cause significant error
 Vibrational temperatures:    575.68  1038.74  1204.91  1694.67  1842.96
          (Kelvin)           4533.65
 
 Zero-point correction=                           0.017244 (Hartree/Particle)
 Thermal correction to Energy=                    0.020589
 Thermal correction to Enthalpy=                  0.021533
 Thermal correction to Gibbs Free Energy=        -0.008939
 Sum of electronic and zero-point Energies=           -598.681516
 Sum of electronic and thermal Energies=              -598.678171
 Sum of electronic and thermal Enthalpies=            -598.677227
 Sum of electronic and thermal Free Energies=         -598.707700
 
                     E (Thermal)             CV                S
                      KCal/Mol        Cal/Mol-Kelvin    Cal/Mol-Kelvin
 Total                   12.920              9.188             64.134
 Electronic               0.000              0.000              1.377
 Translational            0.889              2.981             38.523
 Rotational               0.889              2.981             22.737
 Vibrational             11.142              3.226              1.497
 Vibration     1          0.766              1.470              0.962
                       Q            Log10(Q)             Ln(Q)
 Total Bot       0.129357D+05          4.111791          9.467749
 Total V=0       0.110558D+13         12.043591         27.731394
 Vib (Bot)       0.144498D-07         -7.840139        -18.052587
 Vib (Bot)    1  0.445420D+00         -0.351230         -0.808737
 Vib (V=0)       0.123498D+01          0.091661          0.211058
 Vib (V=0)    1  0.116963D+01          0.068047          0.156684
 Electronic      0.200000D+01          0.301030          0.693147
 Translational   0.215439D+08          7.333324         16.885602
 Rotational      0.207767D+05          4.317576          9.941587
 
                                                           CHFCl-dot-ccpvdz
                                                             IR Spectrum
 
     3                                                                           1   1                                               
     1                                                                           2   1             8   7            4                
     5                                                                           8   7             3   2            0                
     1                                                                           1   8             7   2            0                
 
     X                                                                           X   X             X   X            X                
                                                                                 X   X             X   X                             
                                                                                 X   X             X   X                             
                                                                                 X   X             X   X                             
                                                                                 X   X             X                                 
                                                                                 X   X             X                                 
                                                                                 X   X             X                                 
                                                                                 X   X                                               
                                                                                     X                                               
                                                                                     X                                               
                                                                                     X                                               
                                                                                     X                                               
                                                                                     X                                               
                                                                                     X                                               
                                                                                     X                                               
                                                                                     X                                               
                                                                                     X                                               
                                                                                     X                                               
                                                                                     X                                               
                                                                                     X                                               
 
 ***** Axes restored to original set *****
 -------------------------------------------------------------------
 Center     Atomic                   Forces (Hartrees/Bohr)
 Number     Number              X              Y              Z
 -------------------------------------------------------------------
      1        6          -0.000525030   -0.000171343   -0.000089407
      2        1           0.000105837    0.000061707    0.000006681
      3        9           0.000192155    0.000093197    0.000130965
      4       17           0.000227038    0.000016438   -0.000048238
 -------------------------------------------------------------------
 Cartesian Forces:  Max     0.000525030 RMS     0.000192563
 Force constants in Cartesian coordinates: 
                1             2             3             4             5 
      1  0.349033D+00
      2 -0.107324D+00  0.449279D+00
      3  0.739539D-01  0.184838D+00  0.285710D+00
      4 -0.881804D-01  0.113191D+00  0.126395D-01  0.975565D-01
      5  0.124096D+00 -0.281954D+00 -0.425773D-01 -0.114535D+00  0.289621D+00
      6 -0.503704D-02 -0.161525D-01 -0.344772D-01 -0.234257D-02  0.482185D-01
      7 -0.845396D-01 -0.516005D-01 -0.893269D-01  0.778190D-02 -0.818729D-03
      8 -0.305180D-01 -0.137280D+00 -0.134769D+00 -0.170798D-01 -0.138378D-01
      9 -0.759612D-01 -0.158615D+00 -0.227200D+00 -0.886665D-02 -0.718980D-02
     10 -0.176313D+00  0.457332D-01  0.273350D-02 -0.171579D-01 -0.874258D-02
     11  0.137458D-01 -0.300454D-01 -0.749129D-02  0.184235D-01  0.617072D-02
     12  0.704434D-02 -0.100700D-01 -0.240331D-01 -0.143026D-02  0.154863D-02
                6             7             8             9            10 
      6  0.350315D-01
      7  0.557380D-02  0.109252D+00
      8 -0.314856D-01  0.707405D-01  0.148327D+00
      9 -0.491709D-02  0.113336D+00  0.168047D+00  0.232213D+00
     10  0.180581D-02 -0.324941D-01 -0.231427D-01 -0.285078D-01  0.225965D+00
     11 -0.580339D-03 -0.183213D-01  0.279099D-02 -0.224214D-02 -0.138480D-01
     12  0.436282D-02 -0.295826D-01 -0.179235D-02 -0.964509D-04  0.239685D-01
               11            12 
     11  0.210837D-01
     12  0.103138D-01  0.197667D-01
 FormGI is forming the generalized inverse of G from B-inverse, IUseBI=4.
 Force constants in internal coordinates: 
                1             2             3             4             5 
      1  0.349287D+00
      2  0.881814D-02  0.419936D+00
      3 -0.418298D-03  0.467788D-01  0.228859D+00
      4  0.360404D-02  0.174825D-01 -0.222219D-01  0.887845D-01
      5  0.286016D-02 -0.269822D-01  0.242671D-01 -0.393846D-01  0.104788D+00
      6  0.117630D-02  0.174303D-01  0.255779D-01 -0.800026D-01 -0.442566D-01
      7  0.105272D-01  0.171812D-01  0.226389D-01  0.286022D-02  0.677766D-02
                6             7 
      6  0.178391D+00
      7  0.294703D-01  0.472044D-01
 Leave Link  716 at Sun Sep 07 18:21:32 2025, MaxMem=   104857600 cpu:               0.0 elap:               0.0
 (Enter C:\G16W\l103.exe)

 GradGradGradGradGradGradGradGradGradGradGradGradGradGradGradGradGradGrad
 Berny optimization.
 Red2BG is reusing G-inverse.
 Internal  Forces:  Max     0.000222766 RMS     0.000163540
 Search for a local minimum.
 Step number   1 out of a maximum of    2
 All quantities printed in internal units (Hartrees-Bohrs-Radians)
 Second derivative matrix not updated -- analytic derivatives used.
 The second derivative matrix:
                          R1        R2        R3        A1        A2
           R1           0.34929
           R2           0.00882   0.41994
           R3          -0.00042   0.04678   0.22886
           A1           0.00360   0.01748  -0.02222   0.08878
           A2           0.00286  -0.02698   0.02427  -0.03938   0.10479
           A3           0.00118   0.01743   0.02558  -0.08000  -0.04426
           D1           0.01053   0.01718   0.02264   0.00286   0.00678
                          A3        D1
           A3           0.17839
           D1           0.02947   0.04720
 ITU=  0
     Eigenvalues ---    0.04937   0.11919   0.20531   0.25731   0.34880
     Eigenvalues ---    0.43726
 Angle between quadratic step and forces=  31.98 degrees.
 Linear search not attempted -- first point.
 Iteration  1 RMS(Cart)=  0.00104993 RMS(Int)=  0.00000198
 Iteration  2 RMS(Cart)=  0.00000140 RMS(Int)=  0.00000140
 Iteration  3 RMS(Cart)=  0.00000000 RMS(Int)=  0.00000140
 ITry= 1 IFail=0 DXMaxC= 1.80D-03 DCOld= 1.00D+10 DXMaxT= 3.00D-01 DXLimC= 3.00D+00 Rises=F
 Variable       Old X    -DE/DX   Delta X   Delta X   Delta X     New X
                                 (Linear)    (Quad)   (Total)
    R1        2.07244  -0.00001   0.00000  -0.00014  -0.00014   2.07231
    R2        2.52208   0.00022   0.00000   0.00075   0.00075   2.52283
    R3        3.28163  -0.00022   0.00000  -0.00172  -0.00172   3.27990
    A1        1.99681  -0.00016   0.00000  -0.00069  -0.00070   1.99612
    A2        2.01943   0.00014   0.00000   0.00191   0.00191   2.02134
    A3        1.99912   0.00018   0.00000   0.00095   0.00095   2.00008
    D1        2.38035   0.00012   0.00000   0.00223   0.00223   2.38258
         Item               Value     Threshold  Converged?
 Maximum Force            0.000223     0.000450     YES
 RMS     Force            0.000164     0.000300     YES
 Maximum Displacement     0.001803     0.001800     NO 
 RMS     Displacement     0.001050     0.001200     YES
 Predicted change in Energy=-6.757508D-07
                           ----------------------------
                           ! Non-Optimized Parameters !
                           ! (Angstroms and Degrees)  !
 --------------------------                            --------------------------
 ! Name  Definition              Value          Derivative Info.                !
 --------------------------------------------------------------------------------
 ! R1    R(1,2)                  1.0966         -DE/DX =    0.0                 !
 ! R2    R(1,3)                  1.335          -DE/DX =    0.0002              !
 ! R3    R(1,4)                  1.7357         -DE/DX =   -0.0002              !
 ! A1    A(2,1,3)              114.369          -DE/DX =   -0.0002              !
 ! A2    A(2,1,4)              115.8143         -DE/DX =    0.0001              !
 ! A3    A(3,1,4)              114.596          -DE/DX =    0.0002              !
 ! D1    D(2,1,4,3)            136.5118         -DE/DX =    0.0001              !
 --------------------------------------------------------------------------------
 GradGradGradGradGradGradGradGradGradGradGradGradGradGradGradGradGradGrad

 Leave Link  103 at Sun Sep 07 18:21:32 2025, MaxMem=   104857600 cpu:               0.0 elap:               0.0
 (Enter C:\G16W\l9999.exe)

 ----------------------------------------------------------------------

 Electric dipole moment (input orientation):
 (Debye = 10**-18 statcoulomb cm , SI units = C m)
                  (au)            (Debye)         (10**-30 SI)
   Tot        0.456491D+00      0.116028D+01      0.387029D+01
   x          0.177306D+00      0.450667D+00      0.150326D+01
   y         -0.406020D+00     -0.103200D+01     -0.344238D+01
   z         -0.109974D+00     -0.279526D+00     -0.932397D+00

 Dipole polarizability, Alpha (input orientation).
 (esu units = cm**3 , SI units = C**2 m**2 J**-1)
 Alpha(0;0):
               (au)            (10**-24 esu)      (10**-40 SI)
   iso        0.198317D+02      0.293875D+01      0.326980D+01
   aniso      0.164144D+02      0.243237D+01      0.270637D+01
   xx         0.299542D+02      0.443876D+01      0.493878D+01
   yx        -0.619562D+00     -0.918097D-01     -0.102152D+00
   yy         0.155540D+02      0.230487D+01      0.256451D+01
   zx         0.279466D+01      0.414126D+00      0.460777D+00
   zy         0.203808D+01      0.302012D+00      0.336034D+00
   zz         0.139868D+02      0.207263D+01      0.230611D+01

 ----------------------------------------------------------------------

 Dipole orientation:
     6         -5.99116793          0.46153353         -8.62403685
     1         -5.86341935          0.68223048         -6.56734067
     9         -4.02158551          1.39052937         -9.89628598
    17         -8.91457542          1.14336003         -9.94988551

 Electric dipole moment (dipole orientation):
 (Debye = 10**-18 statcoulomb cm , SI units = C m)
                  (au)            (Debye)         (10**-30 SI)
   Tot        0.456491D+00      0.116028D+01      0.387029D+01
   x          0.000000D+00      0.000000D+00      0.000000D+00
   y          0.000000D+00      0.000000D+00      0.000000D+00
   z          0.456491D+00      0.116028D+01      0.387029D+01

 Dipole polarizability, Alpha (dipole orientation).
 (esu units = cm**3 , SI units = C**2 m**2 J**-1)
 Alpha(0;0):
               (au)            (10**-24 esu)      (10**-40 SI)
   iso        0.198317D+02      0.293875D+01      0.326980D+01
   aniso      0.164144D+02      0.243237D+01      0.270637D+01
   xx         0.284740D+02      0.421941D+01      0.469473D+01
   yx        -0.171871D+01     -0.254686D+00     -0.283377D+00
   yy         0.126070D+02      0.186817D+01      0.207862D+01
   zx         0.446634D+01      0.661844D+00      0.736401D+00
   zy        -0.156895D+01     -0.232495D+00     -0.258685D+00
   zz         0.184140D+02      0.272867D+01      0.303606D+01

 ----------------------------------------------------------------------
 1|1|UNPC-DESKTOP-SI45VP7|Freq|UB3LYP|CC-pVDZ|C1H1Cl1F1(2)|DOG OF ROMAN
 |07-Sep-2025|0||#p UB3LYP/cc-pVDZ Freq Geom=AllCheck Guess=Read||CHFCl
 -dot-ccpvdz||0,2|C,-4.6255146041,3.0879137188,0.0852498445|H,-4.175915
 3608,2.0963749421,-0.0468151221|F,-4.1083256359,3.7986863221,1.0895172
 291|Cl,-6.3574000592,3.150481547,-0.0256813614||Version=EM64W-G16RevB.
 01|State=2-A|HF=-598.6987603|S2=0.752791|S2-1=0.|S2A=0.750006|RMSD=3.6
 82e-010|RMSF=1.926e-004|ZeroPoint=0.0172443|Thermal=0.0205889|Dipole=0
 .177306,-0.4060197,-0.1099738|DipoleDeriv=1.3071,0.0605631,0.3875626,0
 .2130424,0.4616489,0.4119585,0.5683587,0.4092415,0.5258245,-0.0340003,
 0.048126,-0.032773,0.0555111,-0.009308,-0.0649859,-0.0735125,0.0172533
 ,0.113157,-0.5030012,-0.1269293,-0.22102,-0.2877652,-0.3655598,-0.3133
 135,-0.52512,-0.3922656,-0.5631132,-0.7700985,0.0182402,-0.1337696,0.0
 192117,-0.0867811,-0.0336591,0.0302738,-0.0342292,-0.0758683|Polar=29.
 9542135,-0.6195624,15.5540002,2.7946616,2.0380798,13.9868161|Quadrupol
 e=0.2726765,0.4009179,-0.6735944,-1.1047126,-0.4409084,0.0480828|PG=C0
 1 [X(C1H1Cl1F1)]|NImag=0||0.34903256,-0.10732383,0.44927932,0.07395395
 ,0.18483754,0.28571025,-0.08818041,0.11319107,0.01263948,0.09755645,0.
 12409607,-0.28195376,-0.04257730,-0.11453476,0.28962088,-0.00503704,-0
 .01615255,-0.03447724,-0.00234257,0.04821847,0.03503151,-0.08453957,-0
 .05160047,-0.08932693,0.00778190,-0.00081873,0.00557380,0.10925172,-0.
 03051804,-0.13728012,-0.13476894,-0.01707984,-0.01383784,-0.03148559,0
 .07074054,0.14832697,-0.07596125,-0.15861494,-0.22719989,-0.00886665,-
 0.00718980,-0.00491709,0.11333569,0.16804687,0.23221344,-0.17631258,0.
 04573323,0.00273350,-0.01715795,-0.00874258,0.00180581,-0.03249406,-0.
 02314265,-0.02850778,0.22596458,0.01374580,-0.03004544,-0.00749129,0.0
 1842354,0.00617072,-0.00058034,-0.01832134,0.00279099,-0.00224214,-0.0
 1384800,0.02108373,0.00704434,-0.01007005,-0.02403312,-0.00143026,0.00
 154863,0.00436282,-0.02958256,-0.00179235,-0.00009645,0.02396847,0.010
 31377,0.01976675||0.00052503,0.00017134,0.00008941,-0.00010584,-0.0000
 6171,-0.00000668,-0.00019215,-0.00009320,-0.00013096,-0.00022704,-0.00
 001644,0.00004824|||@


 TERRY FORSTER, PORTLY ATLANTA BRAVES RELIEVER,
 ANNOUNCING THAT HE WAS GOING TO A FAT FARM:
 "A WAIST IS A TERRIBLE THING TO MIND."
 Job cpu time:       0 days  0 hours  0 minutes 15.0 seconds.
 Elapsed time:       0 days  0 hours  0 minutes 14.6 seconds.
 File lengths (MBytes):  RWF=      7 Int=      0 D2E=      0 Chk=      2 Scr=      1
 Normal termination of Gaussian 16 at Sun Sep 07 18:21:32 2025.
