 Entering Link 1 = C:\G16W\l1.exe PID=     30280.
  
 Copyright (c) 1988-2017, Gaussian, Inc.  All Rights Reserved.
  
 This is part of the Gaussian(R) 16 program.  It is based on
 the Gaussian(R) 09 system (copyright 2009, Gaussian, Inc.),
 the Gaussian(R) 03 system (copyright 2003, Gaussian, Inc.),
 the Gaussian(R) 98 system (copyright 1998, Gaussian, Inc.),
 the Gaussian(R) 94 system (copyright 1995, Gaussian, Inc.),
 the Gaussian 92(TM) system (copyright 1992, Gaussian, Inc.),
 the Gaussian 90(TM) system (copyright 1990, Gaussian, Inc.),
 the Gaussian 88(TM) system (copyright 1988, Gaussian, Inc.),
 the Gaussian 86(TM) system (copyright 1986, Carnegie Mellon
 University), and the Gaussian 82(TM) system (copyright 1983,
 Carnegie Mellon University). Gaussian is a federally registered
 trademark of Gaussian, Inc.
  
 This software contains proprietary and confidential information,
 including trade secrets, belonging to Gaussian, Inc.
  
 This software is provided under written license and may be
 used, copied, transmitted, or stored only in accord with that
 written license.
  
 The following legend is applicable only to US Government
 contracts under FAR:
  
                    RESTRICTED RIGHTS LEGEND
  
 Use, reproduction and disclosure by the US Government is
 subject to restrictions as set forth in subparagraphs (a)
 and (c) of the Commercial Computer Software - Restricted
 Rights clause in FAR 52.227-19.
  
 Gaussian, Inc.
 340 Quinnipiac St., Bldg. 40, Wallingford CT 06492
  
  
 ---------------------------------------------------------------
 Warning -- This program may not be used in any manner that
 competes with the business of Gaussian, Inc. or will provide
 assistance to any competitor of Gaussian, Inc.  The licensee
 of this program is prohibited from giving any competitor of
 Gaussian, Inc. access to this program.  By using this program,
 the user acknowledges that Gaussian, Inc. is engaged in the
 business of creating and licensing software in the field of
 computational chemistry and represents and warrants to the
 licensee that it is not a competitor of Gaussian, Inc. and that
 it will not use this program in any manner prohibited above.
 ---------------------------------------------------------------
  

 Cite this work as:
 Gaussian 16, Revision B.01,
 M. J. Frisch, G. W. Trucks, H. B. Schlegel, G. E. Scuseria, 
 M. A. Robb, J. R. Cheeseman, G. Scalmani, V. Barone, 
 G. A. Petersson, H. Nakatsuji, X. Li, M. Caricato, A. V. Marenich, 
 J. Bloino, B. G. Janesko, R. Gomperts, B. Mennucci, H. P. Hratchian, 
 J. V. Ortiz, A. F. Izmaylov, J. L. Sonnenberg, D. Williams-Young, 
 F. Ding, F. Lipparini, F. Egidi, J. Goings, B. Peng, A. Petrone, 
 T. Henderson, D. Ranasinghe, V. G. Zakrzewski, J. Gao, N. Rega, 
 G. Zheng, W. Liang, M. Hada, M. Ehara, K. Toyota, R. Fukuda, 
 J. Hasegawa, M. Ishida, T. Nakajima, Y. Honda, O. Kitao, H. Nakai, 
 T. Vreven, K. Throssell, J. A. Montgomery, Jr., J. E. Peralta, 
 F. Ogliaro, M. J. Bearpark, J. J. Heyd, E. N. Brothers, K. N. Kudin, 
 V. N. Staroverov, T. A. Keith, R. Kobayashi, J. Normand, 
 K. Raghavachari, A. P. Rendell, J. C. Burant, S. S. Iyengar, 
 J. Tomasi, M. Cossi, J. M. Millam, M. Klene, C. Adamo, R. Cammi, 
 J. W. Ochterski, R. L. Martin, K. Morokuma, O. Farkas, 
 J. B. Foresman, and D. J. Fox, Gaussian, Inc., Wallingford CT, 2016.
 
 ******************************************
 Gaussian 16:  EM64W-G16RevB.01 16-Dec-2017
                07-Sep-2025 
 ******************************************
 %chk=C:\G16W\Scratch\F_rad_ccpvdz.chk
 %mem=4GB
 %nproc=20
 Will use up to   20 processors via shared memory.
 ------------------------------
 #p UB3LYP/cc-pVDZ SP SCF=Tight
 ------------------------------
 1/38=1,172=1/1;
 2/12=2,17=6,18=5,40=1/2;
 3/5=16,11=2,25=1,30=1,74=-5,116=2/1,2,3;
 4//1;
 5/5=2,32=2,38=5/2;
 6/7=2,8=2,9=2,10=2,28=1/1;
 99/5=1,9=1/99;
 Leave Link    1 at Sun Sep 07 18:01:23 2025, MaxMem=   536870912 cpu:               1.0 elap:               0.4
 (Enter C:\G16W\l101.exe)
 ------------------------------------
 Fluorine atom (doublet) single-point
 ------------------------------------
 Symbolic Z-matrix:
 Charge =  0 Multiplicity = 2
 F                     0.        0.        0. 
 
 ITRead=  0
 MicOpt= -1
 NAtoms=      1 NQM=        1 NQMF=       0 NMMI=      0 NMMIF=      0
                NMic=       0 NMicF=      0.
                    Isotopes and Nuclear Properties:
 (Nuclear quadrupole moments (NQMom) in fm**2, nuclear magnetic moments (NMagM)
  in nuclear magnetons)

  Atom         1
 IAtWgt=          19
 AtmWgt=  18.9984033
 NucSpn=           1
 AtZEff=   0.0000000
 NQMom=    0.0000000
 NMagM=    2.6288670
 AtZNuc=   9.0000000
 Leave Link  101 at Sun Sep 07 18:01:23 2025, MaxMem=   536870912 cpu:               0.0 elap:               0.4
 (Enter C:\G16W\l202.exe)
                          Input orientation:                          
 ---------------------------------------------------------------------
 Center     Atomic      Atomic             Coordinates (Angstroms)
 Number     Number       Type             X           Y           Z
 ---------------------------------------------------------------------
      1          9           0        0.000000    0.000000    0.000000
 ---------------------------------------------------------------------
 Stoichiometry    F(2)
 Framework group  OH[O(F)]
 Deg. of freedom     0
 Full point group                 OH      NOp  48
 Largest Abelian subgroup         D2H     NOp   8
 Largest concise Abelian subgroup C1      NOp   1
                         Standard orientation:                         
 ---------------------------------------------------------------------
 Center     Atomic      Atomic             Coordinates (Angstroms)
 Number     Number       Type             X           Y           Z
 ---------------------------------------------------------------------
      1          9           0        0.000000    0.000000    0.000000
 ---------------------------------------------------------------------
 Leave Link  202 at Sun Sep 07 18:01:23 2025, MaxMem=   536870912 cpu:               0.0 elap:               0.3
 (Enter C:\G16W\l301.exe)
 Standard basis: CC-pVDZ (5D, 7F)
 Ernie: Thresh=  0.10000D-02 Tol=  0.10000D-05 Strict=F.
 Ernie:  2 primitive shells out of 22 were deleted.
 There are     6 symmetry adapted cartesian basis functions of AG  symmetry.
 There are     1 symmetry adapted cartesian basis functions of B1G symmetry.
 There are     1 symmetry adapted cartesian basis functions of B2G symmetry.
 There are     1 symmetry adapted cartesian basis functions of B3G symmetry.
 There are     0 symmetry adapted cartesian basis functions of AU  symmetry.
 There are     2 symmetry adapted cartesian basis functions of B1U symmetry.
 There are     2 symmetry adapted cartesian basis functions of B2U symmetry.
 There are     2 symmetry adapted cartesian basis functions of B3U symmetry.
 There are     5 symmetry adapted basis functions of AG  symmetry.
 There are     1 symmetry adapted basis functions of B1G symmetry.
 There are     1 symmetry adapted basis functions of B2G symmetry.
 There are     1 symmetry adapted basis functions of B3G symmetry.
 There are     0 symmetry adapted basis functions of AU  symmetry.
 There are     2 symmetry adapted basis functions of B1U symmetry.
 There are     2 symmetry adapted basis functions of B2U symmetry.
 There are     2 symmetry adapted basis functions of B3U symmetry.
    14 basis functions,    33 primitive gaussians,    15 cartesian basis functions
     5 alpha electrons        4 beta electrons
       nuclear repulsion energy         0.0000000000 Hartrees.
 IExCor=  402 DFT=T Ex+Corr=B3LYP ExCW=0 ScaHFX=  0.200000
 ScaDFX=  0.800000  0.720000  1.000000  0.810000 ScalE2=  1.000000  1.000000
 IRadAn=      5 IRanWt=     -1 IRanGd=            0 ICorTp=0 IEmpDi=  4
 NAtoms=    1 NActive=    1 NUniq=    1 SFac= 1.00D+00 NAtFMM=   60 NAOKFM=F Big=F
 Integral buffers will be    131072 words long.
 Raffenetti 2 integral format.
 Two-electron integral symmetry is turned on.
 Leave Link  301 at Sun Sep 07 18:01:24 2025, MaxMem=   536870912 cpu:               1.0 elap:               0.4
 (Enter C:\G16W\l302.exe)
 NPDir=0 NMtPBC=     1 NCelOv=     1 NCel=       1 NClECP=     1 NCelD=      1
         NCelK=      1 NCelE2=     1 NClLst=     1 CellRange=     0.0.
 One-electron integrals computed using PRISM.
 One-electron integral symmetry used in STVInt
 NBasis=    14 RedAO= T EigKep=  2.09D-01  NBF=     5     1     1     1     0     2     2     2
 NBsUse=    14 1.00D-06 EigRej= -1.00D+00 NBFU=     5     1     1     1     0     2     2     2
 Precomputing XC quadrature grid using
 IXCGrd= 4 IRadAn=           5 IRanWt=          -1 IRanGd=           0 AccXCQ= 0.00D+00.
 Generated NRdTot=       0 NPtTot=           0 NUsed=           0 NTot=          32
 NSgBfM=    15    15    15    15    15 MxSgAt=     1 MxSgA2=     1.
 Leave Link  302 at Sun Sep 07 18:01:24 2025, MaxMem=   536870912 cpu:               0.0 elap:               0.5
 (Enter C:\G16W\l303.exe)
 DipDrv:  MaxL=1.
 Leave Link  303 at Sun Sep 07 18:01:25 2025, MaxMem=   536870912 cpu:               1.0 elap:               0.4
 (Enter C:\G16W\l401.exe)
 ExpMin= 3.47D-01 ExpMax= 1.47D+04 ExpMxC= 5.03D+02 IAcc=3 IRadAn=         5 AccDes= 0.00D+00
 Harris functional with IExCor=  402 and IRadAn=       5 diagonalized for initial guess.
 HarFok:  IExCor=  402 AccDes= 0.00D+00 IRadAn=         5 IDoV= 1 UseB2=F ITyADJ=14
 ICtDFT=  3500011 ScaDFX=  1.000000  1.000000  1.000000  1.000000
 FoFCou: FMM=F IPFlag=           0 FMFlag=      100000 FMFlg1=           0
         NFxFlg=           0 DoJE=T BraDBF=F KetDBF=T FulRan=T
         wScrn=  0.000000 ICntrl=       500 IOpCl=  0 I1Cent=   200000004 NGrid=           0
         NMat0=    1 NMatS0=      1 NMatT0=    0 NMatD0=    1 NMtDS0=    0 NMtDT0=    0
 Petite list used in FoFCou.
 Harris En= -99.6813370731288    
 JPrj=0 DoOrth=F DoCkMO=F.
 Initial guess orbital symmetries:
 Alpha Orbitals:
       Occupied  (A1G) (A1G) (T1U) (T1U) (T1U)
       Virtual   (T1U) (T1U) (T1U) (A1G) (T2G) (T2G) (T2G) (EG)
                 (EG)
 Beta  Orbitals:
       Occupied  (A1G) (A1G) (T1U) (T1U)
       Virtual   (T1U) (T1U) (T1U) (T1U) (A1G) (T2G) (T2G) (T2G)
                 (EG) (EG)
 Initial guess <Sx>= 0.0000 <Sy>= 0.0000 <Sz>= 0.5000 <S**2>= 0.7500 S= 0.5000
 Leave Link  401 at Sun Sep 07 18:01:26 2025, MaxMem=   536870912 cpu:               1.0 elap:               0.7
 (Enter C:\G16W\l502.exe)
 Keep R1 and R2 ints in memory in symmetry-blocked form, NReq=17261511.
 FoFCou: FMM=F IPFlag=           0 FMFlag=           0 FMFlg1=           0
         NFxFlg=           0 DoJE=F BraDBF=F KetDBF=F FulRan=T
         wScrn=  0.000000 ICntrl=       600 IOpCl=  0 I1Cent=           0 NGrid=           0
         NMat0=    1 NMatS0=    105 NMatT0=    0 NMatD0=    1 NMtDS0=    0 NMtDT0=    0
 Petite list used in FoFCou.
 UHF open shell SCF:
 Using DIIS extrapolation, IDIIS=  1040.
 NGot=   536870912 LenX=   536865362 LenY=   536864480
 Requested convergence on RMS density matrix=1.00D-08 within 128 cycles.
 Requested convergence on MAX density matrix=1.00D-06.
 Requested convergence on             energy=1.00D-06.
 No special actions if energy rises.
 Integral accuracy reduced to 1.0D-05 until final iterations.

 Cycle   1  Pass 0  IDiag  1:
 Density matrix breaks symmetry, PCut= 1.00D-04
 Density has only Abelian symmetry.
 E= -99.7243138041864    
 DIIS: error= 2.43D-02 at cycle   1 NSaved=   1.
 NSaved= 1 IEnMin= 1 EnMin= -99.7243138041864     IErMin= 1 ErrMin= 2.43D-02
 ErrMax= 2.43D-02  0.00D+00 EMaxC= 1.00D-01 BMatC= 1.52D-02 BMatP= 1.52D-02
 IDIUse=3 WtCom= 7.57D-01 WtEn= 2.43D-01
 Coeff-Com:  0.100D+01
 Coeff-En:   0.100D+01
 Coeff:      0.100D+01
 Gap=     1.487 Goal=   None    Shift=    0.000
 Gap=     0.173 Goal=   None    Shift=    0.000
 GapD=    0.173 DampG=1.000 DampE=0.500 DampFc=0.5000 IDamp=-1.
 Damping current iteration by 5.00D-01
 RMSDP=2.35D-03 MaxDP=2.80D-02              OVMax= 7.66D-03

 Cycle   2  Pass 0  IDiag  1:
 Density matrix breaks symmetry, PCut= 1.00D-04
 Density has only Abelian symmetry.
 E= -99.7253860587768     Delta-E=       -0.001072254590 Rises=F Damp=T
 DIIS: error= 1.27D-02 at cycle   2 NSaved=   2.
 NSaved= 2 IEnMin= 2 EnMin= -99.7253860587768     IErMin= 2 ErrMin= 1.27D-02
 ErrMax= 1.27D-02  0.00D+00 EMaxC= 1.00D-01 BMatC= 4.21D-03 BMatP= 1.52D-02
 IDIUse=3 WtCom= 8.73D-01 WtEn= 1.27D-01
 Coeff-Com: -0.962D+00 0.196D+01
 Coeff-En:   0.000D+00 0.100D+01
 Coeff:     -0.840D+00 0.184D+01
 Gap=     1.484 Goal=   None    Shift=    0.000
 Gap=     0.173 Goal=   None    Shift=    0.000
 RMSDP=1.42D-03 MaxDP=1.28D-02 DE=-1.07D-03 OVMax= 3.17D-03

 Cycle   3  Pass 0  IDiag  1:
 Density matrix breaks symmetry, PCut= 1.00D-04
 Density has only Abelian symmetry.
 E= -99.7265532612947     Delta-E=       -0.001167202518 Rises=F Damp=F
 DIIS: error= 2.76D-03 at cycle   3 NSaved=   3.
 NSaved= 3 IEnMin= 3 EnMin= -99.7265532612947     IErMin= 3 ErrMin= 2.76D-03
 ErrMax= 2.76D-03  0.00D+00 EMaxC= 1.00D-01 BMatC= 3.03D-04 BMatP= 4.21D-03
 IDIUse=3 WtCom= 9.72D-01 WtEn= 2.76D-02
 Coeff-Com: -0.431D+00 0.779D+00 0.652D+00
 Coeff-En:   0.000D+00 0.000D+00 0.100D+01
 Coeff:     -0.419D+00 0.758D+00 0.662D+00
 Gap=     1.485 Goal=   None    Shift=    0.000
 Gap=     0.174 Goal=   None    Shift=    0.000
 RMSDP=3.73D-04 MaxDP=2.88D-03 DE=-1.17D-03 OVMax= 1.11D-03

 Cycle   4  Pass 0  IDiag  1:
 Density matrix breaks symmetry, PCut= 1.00D-04
 Density has only Abelian symmetry.
 E= -99.7266011954229     Delta-E=       -0.000047934128 Rises=F Damp=F
 DIIS: error= 3.00D-04 at cycle   4 NSaved=   4.
 NSaved= 4 IEnMin= 4 EnMin= -99.7266011954229     IErMin= 4 ErrMin= 3.00D-04
 ErrMax= 3.00D-04  0.00D+00 EMaxC= 1.00D-01 BMatC= 2.14D-06 BMatP= 3.03D-04
 IDIUse=3 WtCom= 9.97D-01 WtEn= 3.00D-03
 Coeff-Com:  0.853D-01-0.162D+00-0.450D-01 0.112D+01
 Coeff-En:   0.000D+00 0.000D+00 0.000D+00 0.100D+01
 Coeff:      0.850D-01-0.161D+00-0.448D-01 0.112D+01
 Gap=     1.485 Goal=   None    Shift=    0.000
 Gap=     0.174 Goal=   None    Shift=    0.000
 RMSDP=4.65D-05 MaxDP=4.22D-04 DE=-4.79D-05 OVMax= 1.82D-04

 Cycle   5  Pass 0  IDiag  1:
 Density matrix breaks symmetry, PCut= 1.00D-04
 Density has only Abelian symmetry.
 E= -99.7266017037921     Delta-E=       -0.000000508369 Rises=F Damp=F
 DIIS: error= 1.87D-05 at cycle   5 NSaved=   5.
 NSaved= 5 IEnMin= 5 EnMin= -99.7266017037921     IErMin= 5 ErrMin= 1.87D-05
 ErrMax= 1.87D-05  0.00D+00 EMaxC= 1.00D-01 BMatC= 1.06D-08 BMatP= 2.14D-06
 IDIUse=1 WtCom= 1.00D+00 WtEn= 0.00D+00
 Coeff-Com: -0.826D-02 0.162D-01-0.244D-02-0.183D+00 0.118D+01
 Coeff:     -0.826D-02 0.162D-01-0.244D-02-0.183D+00 0.118D+01
 Gap=     1.485 Goal=   None    Shift=    0.000
 Gap=     0.173 Goal=   None    Shift=    0.000
 RMSDP=4.78D-06 MaxDP=3.54D-05 DE=-5.08D-07 OVMax= 1.11D-05

 Initial convergence to 1.0D-05 achieved.  Increase integral accuracy.
 Cycle   6  Pass 1  IDiag  1:
 Density matrix breaks symmetry, PCut= 1.00D-04
 Density has only Abelian symmetry.
 E= -99.7266007265648     Delta-E=        0.000000977227 Rises=F Damp=F
 DIIS: error= 1.72D-06 at cycle   1 NSaved=   1.
 NSaved= 1 IEnMin= 1 EnMin= -99.7266007265648     IErMin= 1 ErrMin= 1.72D-06
 ErrMax= 1.72D-06  0.00D+00 EMaxC= 1.00D-01 BMatC= 7.40D-11 BMatP= 7.40D-11
 IDIUse=1 WtCom= 1.00D+00 WtEn= 0.00D+00
 Coeff-Com:  0.100D+01
 Coeff:      0.100D+01
 Gap=     1.485 Goal=   None    Shift=    0.000
 Gap=     0.173 Goal=   None    Shift=    0.000
 RMSDP=4.78D-06 MaxDP=3.54D-05 DE= 9.77D-07 OVMax= 7.60D-07

 Cycle   7  Pass 1  IDiag  1:
 Density matrix breaks symmetry, PCut= 1.00D-04
 Density has only Abelian symmetry.
 E= -99.7266007265764     Delta-E=       -0.000000000012 Rises=F Damp=F
 DIIS: error= 2.81D-07 at cycle   2 NSaved=   2.
 NSaved= 2 IEnMin= 2 EnMin= -99.7266007265764     IErMin= 2 ErrMin= 2.81D-07
 ErrMax= 2.81D-07  0.00D+00 EMaxC= 1.00D-01 BMatC= 2.03D-12 BMatP= 7.40D-11
 IDIUse=1 WtCom= 1.00D+00 WtEn= 0.00D+00
 Coeff-Com: -0.347D-01 0.103D+01
 Coeff:     -0.347D-01 0.103D+01
 Gap=     1.485 Goal=   None    Shift=    0.000
 Gap=     0.173 Goal=   None    Shift=    0.000
 RMSDP=5.19D-08 MaxDP=4.79D-07 DE=-1.16D-11 OVMax= 1.48D-07

 Cycle   8  Pass 1  IDiag  1:
 Density matrix breaks symmetry, PCut= 1.00D-04
 Density has only Abelian symmetry.
 E= -99.7266007265767     Delta-E=        0.000000000000 Rises=F Damp=F
 DIIS: error= 1.66D-07 at cycle   3 NSaved=   3.
 NSaved= 3 IEnMin= 3 EnMin= -99.7266007265767     IErMin= 3 ErrMin= 1.66D-07
 ErrMax= 1.66D-07  0.00D+00 EMaxC= 1.00D-01 BMatC= 1.03D-12 BMatP= 2.03D-12
 IDIUse=1 WtCom= 1.00D+00 WtEn= 0.00D+00
 Coeff-Com: -0.350D-01 0.435D+00 0.600D+00
 Coeff:     -0.350D-01 0.435D+00 0.600D+00
 Gap=     1.485 Goal=   None    Shift=    0.000
 Gap=     0.173 Goal=   None    Shift=    0.000
 RMSDP=2.19D-08 MaxDP=1.64D-07 DE=-2.70D-13 OVMax= 6.23D-08

 Cycle   9  Pass 1  IDiag  1:
 Density matrix breaks symmetry, PCut= 1.00D-04
 Density has only Abelian symmetry.
 E= -99.7266007265768     Delta-E=        0.000000000000 Rises=F Damp=F
 DIIS: error= 2.37D-08 at cycle   4 NSaved=   4.
 NSaved= 4 IEnMin= 4 EnMin= -99.7266007265768     IErMin= 4 ErrMin= 2.37D-08
 ErrMax= 2.37D-08  0.00D+00 EMaxC= 1.00D-01 BMatC= 1.32D-14 BMatP= 1.03D-12
 IDIUse=1 WtCom= 1.00D+00 WtEn= 0.00D+00
 Coeff-Com:  0.436D-02-0.106D+00-0.279D-01 0.113D+01
 Coeff:      0.436D-02-0.106D+00-0.279D-01 0.113D+01
 Gap=     1.485 Goal=   None    Shift=    0.000
 Gap=     0.173 Goal=   None    Shift=    0.000
 RMSDP=4.05D-09 MaxDP=3.59D-08 DE=-9.95D-14 OVMax= 1.17D-08

 Density matrix breaks symmetry, PCut= 1.00D-04
 Density has only Abelian symmetry.
 SCF Done:  E(UB3LYP) =  -99.7266007266     A.U. after    9 cycles
            NFock=  9  Conv=0.40D-08     -V/T= 2.0042
 <Sx>= 0.0000 <Sy>= 0.0000 <Sz>= 0.5000 <S**2>= 0.7508 S= 0.5004
 <L.S>= 0.000000000000E+00
 KE= 9.930818771698D+01 PE=-2.386069408534D+02 EE= 3.957215240987D+01
 Annihilation of the first spin contaminant:
 S**2 before annihilation     0.7508,   after     0.7500
 Leave Link  502 at Sun Sep 07 18:01:27 2025, MaxMem=   536870912 cpu:               1.0 elap:               1.8
 (Enter C:\G16W\l601.exe)
 Copying SCF densities to generalized density rwf, IOpCl= 1 IROHF=0.
 SCF density gives NOpUse=  8 NOpAll= 48.
 Marking SCF density as not fully symmetric.

 **********************************************************************

            Population analysis using the SCF Density.

 **********************************************************************

 Orbital symmetries:
 Alpha Orbitals:
       Occupied  (A1G) (?A) (?B) (?B) (?B)
       Virtual   (?B) (?B) (?B) (?A) (?A) (T2G) (T2G) (T2G) (?A)
 Beta  Orbitals:
       Occupied  (A1G) (A1G) (?A) (?A)
       Virtual   (?A) (?A) (?A) (?A) (A1G) (T2G) (EG) (T2G) (T2G)
                 (EG)
 Unable to determine electronic state:  an orbital has unidentified symmetry.
 Alpha  occ. eigenvalues --  -24.78074  -1.21081  -0.53814  -0.44884  -0.44884
 Alpha virt. eigenvalues --    1.03615   1.09158   1.09158   1.42372   3.43954
 Alpha virt. eigenvalues --    3.46149   3.46149   3.53097   3.53097
  Beta  occ. eigenvalues --  -24.75009  -1.11996  -0.41748  -0.41748
  Beta virt. eigenvalues --   -0.24400   1.10959   1.10959   1.14769   1.47099
  Beta virt. eigenvalues --    3.54613   3.54613   3.55660   3.55660   3.57609
          Condensed to atoms (all electrons):
               1
     1  F    9.000000
          Atomic-Atomic Spin Densities.
               1
     1  F    1.000000
 Mulliken charges and spin densities:
               1          2
     1  F    0.000000   1.000000
 Sum of Mulliken charges =   0.00000   1.00000
 Mulliken charges and spin densities with hydrogens summed into heavy atoms:
               1          2
     1  F    0.000000   1.000000
 Electronic spatial extent (au):  <R**2>=              9.9193
 Charge=              0.0000 electrons
 Dipole moment (field-independent basis, Debye):
    X=              0.0000    Y=              0.0000    Z=              0.0000  Tot=              0.0000
 Quadrupole moment (field-independent basis, Debye-Ang):
   XX=             -3.8903   YY=             -4.7257   ZZ=             -4.7257
   XY=              0.0000   XZ=              0.0000   YZ=              0.0000
 Traceless Quadrupole moment (field-independent basis, Debye-Ang):
   XX=              0.5569   YY=             -0.2785   ZZ=             -0.2785
   XY=              0.0000   XZ=              0.0000   YZ=              0.0000
 Octapole moment (field-independent basis, Debye-Ang**2):
  XXX=              0.0000  YYY=              0.0000  ZZZ=              0.0000  XYY=              0.0000
  XXY=              0.0000  XXZ=              0.0000  XZZ=              0.0000  YZZ=              0.0000
  YYZ=              0.0000  XYZ=              0.0000
 Hexadecapole moment (field-independent basis, Debye-Ang**3):
 XXXX=             -1.8247 YYYY=             -2.5285 ZZZZ=             -2.5285 XXXY=              0.0000
 XXXZ=              0.0000 YYYX=              0.0000 YYYZ=              0.0000 ZZZX=              0.0000
 ZZZY=              0.0000 XXYY=             -0.7255 XXZZ=             -0.7255 YYZZ=             -0.8428
 XXYZ=              0.0000 YYXZ=              0.0000 ZZXY=              0.0000
 N-N= 0.000000000000D+00 E-N=-2.386069410879D+02  KE= 9.930818771698D+01
 Symmetry AG   KE= 8.256024745786D+01
 Symmetry B1G  KE= 8.663204312559D-36
 Symmetry B2G  KE= 8.663204312559D-36
 Symmetry B3G  KE= 1.101747381656D-52
 Symmetry AU   KE= 0.000000000000D+00
 Symmetry B1U  KE= 6.638617610033D+00
 Symmetry B2U  KE= 6.638617610033D+00
 Symmetry B3U  KE= 3.470705039058D+00
 Symmetry AG   SP= 1.705612647646D-15
 Symmetry B1G  SP= 1.086154778610D-36
 Symmetry B2G  SP= 1.086154778610D-36
 Symmetry B3G  SP= 4.222725156174D-53
 Symmetry AU   SP= 0.000000000000D+00
 Symmetry B1U  SP= 6.192962809237D-16
 Symmetry B2U  SP=-4.848552115355D-16
 Symmetry B3U  SP= 1.000000000000D+00
                          Isotropic Fermi Contact Couplings
        Atom                 a.u.       MegaHertz       Gauss      10(-4) cm-1
     1  F(19)              0.14842     624.46780     222.82564     208.30004
 --------------------------------------------------------
       Center         ----  Spin Dipole Couplings  ----
                      3XX-RR        3YY-RR        3ZZ-RR
 --------------------------------------------------------
     1   Atom        5.929554     -2.964777     -2.964777
 --------------------------------------------------------
                        XY            XZ            YZ
 --------------------------------------------------------
     1   Atom        0.000000      0.000000      0.000000
 --------------------------------------------------------


 ---------------------------------------------------------------------------------
              Anisotropic Spin Dipole Couplings in Principal Axis System
 ---------------------------------------------------------------------------------

       Atom             a.u.   MegaHertz   Gauss  10(-4) cm-1        Axes

              Baa    -2.9648 -1488.987  -531.308  -496.673  0.0000  1.0000  0.0000
     1 F(19)  Bbb    -2.9648 -1488.987  -531.308  -496.673  0.0000  0.0000  1.0000
              Bcc     5.9296  2977.974  1062.615   993.345  1.0000  0.0000  0.0000
 

 ---------------------------------------------------------------------------------

 No NMR shielding tensors so no spin-rotation constants.
 Leave Link  601 at Sun Sep 07 18:01:28 2025, MaxMem=   536870912 cpu:               1.0 elap:               0.7
 (Enter C:\G16W\l9999.exe)
 1|1|UNPC-DESKTOP-SI45VP7|SP|UB3LYP|CC-pVDZ|F1(2)|DOG OF ROMAN|07-Sep-2
 025|0||#p UB3LYP/cc-pVDZ SP SCF=Tight||Fluorine atom (doublet) single-
 point||0,2|F,0,0.,0.,0.||Version=EM64W-G16RevB.01|HF=-99.7266007|S2=0.
 750831|S2-1=0.|S2A=0.75|RMSD=4.049e-009|Dipole=0.,0.,0.|Quadrupole=-0.
 2070348,-0.2070348,0.4140696,0.,0.,0.|PG=OH [O(F1)]||@


 YOU KNOW YOU'RE A TEACHER WHEN YOU SAY 2, WRITE 3, AND MEAN 4.
 -- RONALD ANSTROM, HIGH SCHOOL TEACHER, UNDERWOOD, N.D. 1974
 Job cpu time:       0 days  0 hours  0 minutes  7.0 seconds.
 Elapsed time:       0 days  0 hours  0 minutes  6.0 seconds.
 File lengths (MBytes):  RWF=      6 Int=      0 D2E=      0 Chk=      1 Scr=      1
 Normal termination of Gaussian 16 at Sun Sep 07 18:01:29 2025.
